
     Program PWSCF v.6.1 (svn rev. 13369) starts on 28Jul2017 at  7:22:47 

     This program is part of the open-source Quantum ESPRESSO suite
     for quantum simulation of materials; please cite
         "P. Giannozzi et al., J. Phys.:Condens. Matter 21 395502 (2009);
          URL http://www.quantum-espresso.org", 
     in publications or presentations arising from this work. More details at
     http://www.quantum-espresso.org/quote

     Parallel version (MPI & OpenMP), running on     288 processor cores
     Number of MPI processes:               288
     Threads/MPI process:                     1
     K-points division:     npool     =      32
     R & G space division:  proc/nbgrp/npool/nimage =       9
     Waiting for input...
     Reading input from standard input
Warning: card &IONS ignored
Warning: card / ignored
     Message from routine read_cards :
     DEPRECATED: no units specified in CELL_PARAMETERS card

     Current dimensions of program PWSCF are:
     Max number of different atomic species (ntypx) = 10
     Max number of k-points (npk) =  40000
     Max angular momentum in pseudopotentials (lmaxx) =  3

     Atomic positions and unit cell read from directory:
     ./Out/system.save/
 
     Message from routine readpp:
     file ./Out/system.save/ti.fhi.UPF not found
     Message from routine readpp:
     file ./Out/system.save/ti.fhi.UPF not found
     Message from routine readpp:
     file ./Out/system.save/08-o.lda.fhi.UPF not found
               file 08-o.lda.fhi.UPF: wavefunction(s)  3d renormalized
     Message from routine readpp:
     file ./Out/system.save/03-li.lda.fhi.UPF not found
               file 03-li.lda.fhi.UPF: wavefunction(s)  p f renormalized

     Subspace diagonalization in iterative solution of the eigenvalue problem:
     a serial algorithm will be used

 
     Parallelization info
     --------------------
     sticks:   dense  smooth     PW     G-vecs:    dense   smooth      PW
     Min         380     380    114                44220    44220    7176
     Max         381     381    115                44237    44237    7185
     Sum        3427    3427   1027               398099   398099   64613
 


     bravais-lattice index     =            0
     lattice parameter (alat)  =      11.1683  a.u.
     unit-cell volume          =    2946.5845 (a.u.)^3
     number of atoms/cell      =           48
     number of atomic types    =            4
     number of electrons       =       278.00
     number of Kohn-Sham states=          600
     kinetic-energy cutoff     =     100.0000  Ry
     charge density cutoff     =     400.0000  Ry
     Exchange-correlation      = SLA  PW   NOGX NOGC ( 1  4  0  0 0 0)

     celldm(1)=  11.168281  celldm(2)=   0.000000  celldm(3)=   0.000000
     celldm(4)=   0.000000  celldm(5)=   0.000000  celldm(6)=   0.000000

     crystal axes: (cart. coord. in units of alat)
               a(1) = (   1.000000   0.000000   0.000000 )  
               a(2) = (  -0.500000   0.866025   0.000000 )  
               a(3) = (   0.000000   0.000000   2.442470 )  

     reciprocal axes: (cart. coord. in units 2 pi/alat)
               b(1) = (  1.000000  0.577350  0.000000 )  
               b(2) = (  0.000000  1.154701  0.000000 )  
               b(3) = (  0.000000  0.000000  0.409422 )  


     PseudoPot. # 1 for Ti read from file:
     /hpcgpfs01/scratch/mtopsakal/1.2.0-again/r/ti.fhi.UPF
     MD5 check sum: c4bdc3654679b6e653b810d3fa8e26c3
     Pseudo is Norm-conserving, Zval = 12.0
     Generated using FHI98PP, converted with fhi2upf.x v.5.0.2
     Using radial grid of 1156 points,  2 beta functions with: 
                l(1) =   0
                l(2) =   2

     PseudoPot. # 2 for Ti read from file:
     /hpcgpfs01/scratch/mtopsakal/1.2.0-again/r/ti.fhi.UPF
     MD5 check sum: c4bdc3654679b6e653b810d3fa8e26c3
     Pseudo is Norm-conserving, Zval = 12.0
     Generated using FHI98PP, converted with fhi2upf.x v.5.0.2
     Using radial grid of 1156 points,  2 beta functions with: 
                l(1) =   0
                l(2) =   2

     PseudoPot. # 3 for O  read from file:
     /hpcgpfs01/scratch/mtopsakal/1.2.0-again/r/08-o.lda.fhi.UPF
     MD5 check sum: c35f640a64c00feec7ce3b63cda5293b
     Pseudo is Norm-conserving, Zval =  6.0
     Generated by new atomic code, or converted to UPF format
     Using radial grid of  473 points,  3 beta functions with: 
                l(1) =   0
                l(2) =   1
                l(3) =   3

     PseudoPot. # 4 for Li read from file:
     /hpcgpfs01/scratch/mtopsakal/1.2.0-again/r/03-li.lda.fhi.UPF
     MD5 check sum: 58292b5c7d2b386e0f8e504c5a35e26e
     Pseudo is Norm-conserving + core correction, Zval =  1.0
     Generated by new atomic code, or converted to UPF format
     Using radial grid of  433 points,  3 beta functions with: 
                l(1) =   0
                l(2) =   1
                l(3) =   3

     atomic species   valence    mass     pseudopotential
        Ti1           12.00    47.86700     Ti( 1.00)
        Ti2           12.00    47.86700     Ti( 1.00)
        O              6.00    15.99940     O ( 1.00)
        Li             1.00     6.94100     Li( 1.00)

     Starting magnetic structure 
     atomic species   magnetization
        Ti1          0.500
        Ti2          0.000
        O            0.000
        Li           0.000


     Simplified LDA+U calculation (l_max = 2) with parameters (eV):
     atomic species    L          U    alpha       J0     beta
        Ti1            2     4.0000   0.0000   0.0000   0.0000



     No symmetry found



   Cartesian axes

     site n.     atom                  positions (alat units)
         1           Ti1 tau(   1) = (   0.5000000   0.0000000   0.0000000  )
         2           Ti1 tau(   2) = (  -0.2500000   0.4330127   0.0000000  )
         3           Ti1 tau(   3) = (   0.0023400   0.2914002   1.6248779  )
         4           Ti1 tau(   4) = (   0.2511900   0.1477266   0.8175925  )
         5           Ti1 tau(   5) = (   0.4976600   0.5746252   0.8175925  )
         6           Ti1 tau(   6) = (   0.2488100   0.7182988   1.6248779  )
         7           Ti2 tau(   7) = (   0.4925200   0.2929937   1.6187717  )
         8           Ti2 tau(   8) = (   0.0074800   0.5730317   0.8236987  )
         9           Ti2 tau(   9) = (   0.7506250   0.1439767   2.0552167  )
        10           Ti2 tau(  10) = (  -0.2506250   0.7220487   0.3872537  )
        11           O   tau(  11) = (   0.2414500   0.4379490   0.6241733  )
        12           O   tau(  12) = (   0.2585500   0.4280764   1.8182971  )
        13           O   tau(  13) = (   0.5176400   0.5822462   0.2148641  )
        14           O   tau(  14) = (   0.2454200   0.7394125   2.2276063  )
        15           O   tau(  15) = (  -0.0176400   0.2837792   2.2276063  )
        16           O   tau(  16) = (   0.2545800   0.1266129   0.2148641  )
        17           O   tau(  17) = (  -0.0079850   0.5819604   0.2053873  )
        18           O   tau(  18) = (   0.5079850   0.2840650   2.2370831  )
        19           O   tau(  19) = (   0.5011400   0.5643022   1.4428405  )
        20           O   tau(  20) = (   0.2381300   0.7161510   0.9996299  )
        21           O   tau(  21) = (  -0.0011400   0.3017233   0.9996299  )
        22           O   tau(  22) = (   0.2618700   0.1498744   1.4428405  )
        23           O   tau(  23) = (   0.0146350   0.5689007   1.4465775  )
        24           O   tau(  24) = (   0.4853650   0.2971247   0.9958929  )
        25           O   tau(  25) = (   0.7428100   0.1484887   1.4381998  )
        26           O   tau(  26) = (  -0.2428100   0.7175367   1.0042705  )
        27           O   tau(  27) = (   0.5163350   0.0183164   1.8309002  )
        28           O   tau(  28) = (  -0.2423050   0.4563174   0.6115702  )
        29           O   tau(  29) = (  -0.0163350   0.8477090   0.6115702  )
        30           O   tau(  30) = (   0.7423050   0.4097080   1.8309002  )
        31           O   tau(  31) = (   0.7361200   0.1523512   0.1813779  )
        32           O   tau(  32) = (  -0.2361200   0.7136742   2.2610925  )
        33           O   tau(  33) = (   0.9774550   0.0130164   1.8292393  )
        34           O   tau(  34) = (  -0.4774550   0.8530090   0.6132310  )
        35           Li  tau(  35) = (   0.2500000   0.4330127   0.0000000  )
        36           Li  tau(  36) = (   0.0000000   0.0000000   1.2212352  )
        37           Li  tau(  37) = (   0.0008100   0.2832423   0.3986844  )
        38           Li  tau(  38) = (   0.2448900   0.1423226   2.0437859  )
        39           Li  tau(  39) = (   0.4991900   0.5827831   2.0437859  )
        40           Li  tau(  40) = (   0.2551100   0.7237028   0.3986844  )
        41           Li  tau(  41) = (   0.5000050   0.2886722   0.4036182  )
        42           Li  tau(  42) = (  -0.0000050   0.5773532   2.0388522  )
        43           Li  tau(  43) = (   0.5000000   0.0000000   1.2212352  )
        44           Li  tau(  44) = (  -0.2500000   0.4330127   1.2212352  )
        45           Li  tau(  45) = (   0.7463800   0.1464276   0.8180810  )
        46           Li  tau(  46) = (  -0.2463800   0.7195978   1.6243894  )
        47           Li  tau(  47) = (   0.2500000   0.4330127   1.2212352  )
        48           Li  tau(  48) = (   0.0000000   0.0000000   0.0000000  )

     number of k points=    32  gaussian smearing, width (Ry)=  0.0020
                       cart. coord. in units 2pi/alat
        k(    1) = (   0.0312500   0.0902110   0.0767665), wk =   0.0312500
        k(    2) = (   0.0312500   0.0902110   0.2814773), wk =   0.0312500
        k(    3) = (   0.0312500   0.3788861   0.0767665), wk =   0.0312500
        k(    4) = (   0.0312500   0.3788861   0.2814773), wk =   0.0312500
        k(    5) = (   0.0312500   0.6675612   0.0767665), wk =   0.0312500
        k(    6) = (   0.0312500   0.6675612   0.2814773), wk =   0.0312500
        k(    7) = (   0.0312500   0.9562364   0.0767665), wk =   0.0312500
        k(    8) = (   0.0312500   0.9562364   0.2814773), wk =   0.0312500
        k(    9) = (   0.2812500   0.2345485   0.0767665), wk =   0.0312500
        k(   10) = (   0.2812500   0.2345485   0.2814773), wk =   0.0312500
        k(   11) = (   0.2812500   0.5232237   0.0767665), wk =   0.0312500
        k(   12) = (   0.2812500   0.5232237   0.2814773), wk =   0.0312500
        k(   13) = (   0.2812500   0.8118988   0.0767665), wk =   0.0312500
        k(   14) = (   0.2812500   0.8118988   0.2814773), wk =   0.0312500
        k(   15) = (   0.2812500   1.1005740   0.0767665), wk =   0.0312500
        k(   16) = (   0.2812500   1.1005740   0.2814773), wk =   0.0312500
        k(   17) = (   0.5312500   0.3788861   0.0767665), wk =   0.0312500
        k(   18) = (   0.5312500   0.3788861   0.2814773), wk =   0.0312500
        k(   19) = (   0.5312500   0.6675612   0.0767665), wk =   0.0312500
        k(   20) = (   0.5312500   0.6675612   0.2814773), wk =   0.0312500
        k(   21) = (   0.5312500   0.9562364   0.0767665), wk =   0.0312500
        k(   22) = (   0.5312500   0.9562364   0.2814773), wk =   0.0312500
        k(   23) = (   0.5312500   1.2449115   0.0767665), wk =   0.0312500
        k(   24) = (   0.5312500   1.2449115   0.2814773), wk =   0.0312500
        k(   25) = (   0.7812500   0.5232237   0.0767665), wk =   0.0312500
        k(   26) = (   0.7812500   0.5232237   0.2814773), wk =   0.0312500
        k(   27) = (   0.7812500   0.8118988   0.0767665), wk =   0.0312500
        k(   28) = (   0.7812500   0.8118988   0.2814773), wk =   0.0312500
        k(   29) = (   0.7812500   1.1005740   0.0767665), wk =   0.0312500
        k(   30) = (   0.7812500   1.1005740   0.2814773), wk =   0.0312500
        k(   31) = (   0.7812500   1.3892491   0.0767665), wk =   0.0312500
        k(   32) = (   0.7812500   1.3892491   0.2814773), wk =   0.0312500

     Dense  grid:   398099 G-vectors     FFT dimensions: (  72,  72, 180)

     Estimated max dynamical RAM per process >     495.85MB

     Estimated total allocated dynamical RAM >  142803.45MB
     Generating pointlists ...
     new r_m :   0.1362 (alat units)  1.5206 (a.u.) for type    1
     new r_m :   0.1324 (alat units)  1.4783 (a.u.) for type    2
     new r_m :   0.1324 (alat units)  1.4783 (a.u.) for type    3
     new r_m :   0.1434 (alat units)  1.6013 (a.u.) for type    4

     The potential is recalculated from file :
     ./Out/system.save/charge-density.dat

     Number of +U iterations with fixed ns =  0
     Starting occupations:
 --- enter write_ns ---
 LDA+U parameters:
U( 1)     =  4.00000000
alpha( 1) =  0.00000000
atom    1   Tr[ns(na)] (up, down, total) =   1.96676  1.13041  3.09717
   spin  1
    eigenvalues: 
  0.164  0.182  0.342  0.406  0.872
    eigenvectors:
  0.144  0.496  0.003  0.015  0.341
  0.214  0.022  0.146  0.536  0.082
  0.121  0.149  0.501  0.179  0.049
  0.261  0.307  0.288  0.039  0.105
  0.260  0.025  0.061  0.231  0.423
    occupations:
  0.419  0.142  0.092  0.127  0.250
  0.142  0.378  0.073  0.069  0.030
  0.092  0.073  0.334 -0.033  0.085
  0.127  0.069 -0.033  0.305  0.150
  0.250  0.030  0.085  0.150  0.530
   spin  2
    eigenvalues: 
  0.114  0.147  0.165  0.321  0.382
    eigenvectors:
  0.435  0.072  0.480  0.002  0.010
  0.098  0.167  0.073  0.138  0.523
  0.028  0.184  0.112  0.507  0.169
  0.058  0.385  0.228  0.286  0.043
  0.381  0.191  0.106  0.066  0.255
    occupations:
  0.144  0.010 -0.004 -0.012 -0.032
  0.010  0.292  0.024 -0.001 -0.107
 -0.004  0.024  0.276 -0.085 -0.018
 -0.012 -0.001 -0.085  0.209 -0.001
 -0.032 -0.107 -0.018 -0.001  0.208
atomic mag. moment =     0.836353
atom    2   Tr[ns(na)] (up, down, total) =   1.96676  1.13043  3.09719
   spin  1
    eigenvalues: 
  0.164  0.182  0.342  0.406  0.872
    eigenvectors:
  0.144  0.496  0.003  0.015  0.341
  0.284  0.068  0.646  0.000  0.002
  0.052  0.104  0.001  0.715  0.129
  0.035  0.172  0.003  0.265  0.526
  0.486  0.160  0.347  0.005  0.002
    occupations:
  0.419 -0.008 -0.169 -0.279  0.015
 -0.008  0.282  0.017  0.019 -0.084
 -0.169  0.017  0.430  0.081  0.003
 -0.279  0.019  0.081  0.604 -0.023
  0.015 -0.084  0.003 -0.023  0.232
   spin  2
    eigenvalues: 
  0.114  0.147  0.165  0.321  0.382
    eigenvectors:
  0.435  0.072  0.480  0.002  0.010
  0.000  0.332  0.024  0.644  0.000
  0.126  0.020  0.162  0.001  0.692
  0.429  0.005  0.271  0.002  0.292
  0.010  0.572  0.063  0.350  0.005
    occupations:
  0.144  0.009 -0.007  0.033 -0.006
  0.009  0.260  0.005 -0.004 -0.082
 -0.007  0.005  0.309 -0.110  0.014
  0.033 -0.004 -0.110  0.207 -0.000
 -0.006 -0.082  0.014 -0.000  0.210
atomic mag. moment =     0.836330
atom    3   Tr[ns(na)] (up, down, total) =   1.98539  1.09319  3.07858
   spin  1
    eigenvalues: 
  0.166  0.171  0.345  0.391  0.912
    eigenvectors:
  0.686  0.125  0.001  0.002  0.187
  0.090  0.230  0.662  0.000  0.018
  0.039  0.034  0.002  0.557  0.368
  0.050  0.109  0.000  0.435  0.405
  0.135  0.501  0.336  0.006  0.022
    occupations:
  0.307  0.048 -0.188 -0.211  0.047
  0.048  0.299 -0.050 -0.065 -0.067
 -0.188 -0.050  0.566  0.178 -0.058
 -0.211 -0.065  0.178  0.567 -0.082
  0.047 -0.067 -0.058 -0.082  0.246
   spin  2
    eigenvalues: 
  0.113  0.138  0.155  0.322  0.365
    eigenvectors:
  0.260  0.737  0.001  0.002  0.001
  0.024  0.023  0.291  0.661  0.000
  0.305  0.089  0.021  0.002  0.583
  0.374  0.138  0.077  0.000  0.411
  0.036  0.013  0.611  0.334  0.005
    occupations:
  0.132  0.005  0.012  0.004 -0.006
  0.005  0.264  0.014  0.005 -0.080
  0.012  0.014  0.264 -0.119  0.012
  0.004  0.005 -0.119  0.223 -0.006
 -0.006 -0.080  0.012 -0.006  0.210
atomic mag. moment =     0.892204
atom    4   Tr[ns(na)] (up, down, total) =   1.98514  1.09327  3.07841
   spin  1
    eigenvalues: 
  0.166  0.171  0.345  0.391  0.912
    eigenvectors:
  0.687  0.125  0.001  0.002  0.186
  0.104  0.007  0.135  0.403  0.351
  0.025  0.258  0.528  0.153  0.035
  0.042  0.606  0.247  0.069  0.037
  0.142  0.005  0.089  0.372  0.391
    occupations:
  0.306  0.186  0.053  0.065  0.206
  0.186  0.543  0.091  0.080  0.170
  0.053  0.091  0.323 -0.059  0.073
  0.065  0.080 -0.059  0.256  0.099
  0.206  0.170  0.073  0.099  0.558
   spin  2
    eigenvalues: 
  0.113  0.138  0.155  0.322  0.365
    eigenvectors:
  0.260  0.737  0.001  0.002  0.001
  0.309  0.112  0.021  0.133  0.425
  0.020  0.000  0.290  0.531  0.158
  0.020  0.007  0.664  0.242  0.066
  0.391  0.143  0.023  0.093  0.350
    occupations:
  0.132 -0.008 -0.010  0.003 -0.007
 -0.008  0.252  0.007 -0.009 -0.116
 -0.010  0.007  0.276 -0.082 -0.016
  0.003 -0.009 -0.082  0.208  0.003
 -0.007 -0.116 -0.016  0.003  0.225
atomic mag. moment =     0.891870
atom    5   Tr[ns(na)] (up, down, total) =   1.98531  1.09314  3.07845
   spin  1
    eigenvalues: 
  0.166  0.171  0.345  0.391  0.913
    eigenvectors:
  0.678  0.128  0.001  0.002  0.192
  0.091  0.230  0.661  0.000  0.017
  0.041  0.034  0.002  0.557  0.366
  0.053  0.108  0.000  0.435  0.404
  0.137  0.500  0.336  0.006  0.020
    occupations:
  0.311  0.047 -0.191 -0.214  0.046
  0.047  0.298 -0.048 -0.063 -0.068
 -0.191 -0.048  0.565  0.177 -0.055
 -0.214 -0.063  0.177  0.566 -0.079
  0.046 -0.068 -0.055 -0.079  0.245
   spin  2
    eigenvalues: 
  0.113  0.138  0.155  0.322  0.365
    eigenvectors:
  0.264  0.732  0.001  0.002  0.001
  0.024  0.023  0.292  0.661  0.000
  0.304  0.091  0.020  0.002  0.583
  0.373  0.140  0.076  0.000  0.411
  0.035  0.014  0.611  0.335  0.005
    occupations:
  0.132  0.005  0.012  0.004 -0.006
  0.005  0.264  0.014  0.005 -0.080
  0.012  0.014  0.264 -0.119  0.012
  0.004  0.005 -0.119  0.224 -0.006
 -0.006 -0.080  0.012 -0.006  0.210
atomic mag. moment =     0.892165
atom    6   Tr[ns(na)] (up, down, total) =   1.98535  1.09322  3.07857
   spin  1
    eigenvalues: 
  0.166  0.171  0.345  0.391  0.912
    eigenvectors:
  0.689  0.125  0.001  0.002  0.184
  0.102  0.006  0.135  0.404  0.352
  0.026  0.258  0.529  0.153  0.035
  0.042  0.606  0.247  0.069  0.036
  0.141  0.005  0.089  0.373  0.393
    occupations:
  0.305  0.186  0.052  0.064  0.205
  0.186  0.544  0.091  0.079  0.171
  0.052  0.091  0.322 -0.059  0.072
  0.064  0.079 -0.059  0.255  0.098
  0.205  0.171  0.072  0.098  0.559
   spin  2
    eigenvalues: 
  0.113  0.138  0.155  0.322  0.365
    eigenvectors:
  0.258  0.739  0.001  0.002  0.001
  0.310  0.111  0.021  0.132  0.425
  0.020  0.000  0.290  0.532  0.158
  0.020  0.007  0.665  0.242  0.066
  0.392  0.143  0.023  0.092  0.350
    occupations:
  0.132 -0.008 -0.010  0.003 -0.007
 -0.008  0.252  0.007 -0.009 -0.116
 -0.010  0.007  0.276 -0.082 -0.016
  0.003 -0.009 -0.082  0.208  0.003
 -0.007 -0.116 -0.016  0.003  0.225
atomic mag. moment =     0.892124
N of occupied +U levels =   18.508382
 --- exit write_ns ---
 Atomic wfc used for LDA+U Projector are NOT orthogonalized
     Starting wfc are  698 randomized atomic wfcs

     Band Structure Calculation
     Davidson diagonalization with overlap

     ethr =  3.96E-10,  avg # of iterations = 16.0

     total cpu time spent up to now is      346.4 secs

     End of band structure calculation

 ------ SPIN UP ------------


          k = 0.0312 0.0902 0.0768 ( 49744 PWs)   bands (ev):

   -47.3982 -47.3971 -47.3770 -47.3637 -47.2806 -47.2490 -47.2284 -47.2273
   -47.1911 -47.1900 -25.1688 -25.1458 -25.0713 -24.9578 -24.9411 -24.9157
   -24.8943 -24.8711 -24.8551 -24.8372 -24.8182 -24.7929 -24.7884 -24.7233
   -24.7162 -24.7107 -24.7054 -24.7015 -24.5924 -24.5156 -24.5128 -24.4915
   -24.4769 -24.4329 -24.4260 -24.4246 -24.4175 -24.4156 -24.3449 -24.3438
   -10.1127 -10.0063  -9.7030  -9.3146  -9.2009  -9.1254  -9.1103  -9.0659
    -8.9671  -8.9373  -8.9109  -8.8910  -8.8259  -8.7351  -8.6600  -8.6237
    -8.5752  -8.5708  -8.5473  -8.4943  -8.4886  -8.4192  -8.4047  -8.2470
     2.1334   2.2421   2.2808   2.3506   2.4020   2.4756   2.4921   2.8369
     2.8655   2.9701   3.1833   3.2070   3.2152   3.2570   3.2973   3.3012
     3.3461   3.3894   3.4344   3.5338   3.6842   3.7594   3.7754   4.0333
     4.0506   4.1455   4.1908   4.2327   4.2497   4.2942   4.3210   4.3565
     4.4026   4.5338   4.6336   4.6855   4.7405   4.8855   4.9203   4.9632
     5.0705   5.0930   5.2649   5.2726   5.3594   5.3675   5.4312   5.4418
     5.4900   5.5089   5.5489   5.5995   5.6182   5.6711   5.6747   5.7250
     5.8236   5.8389   5.9138   5.9922   6.0185   6.1138   6.1669   6.3161
     6.3603   6.5026   6.5088   6.5473   6.5956   6.5994   6.6335   6.6408
     8.3018   8.4950   8.5794   8.6139   8.7256   8.8486  10.2453  10.3858
    10.4594  10.4782  10.5421  10.6156  10.7406  10.7662  10.7823  10.8029
    10.8367  10.8595  11.0718  11.0751  11.0900  11.3814  11.4394  11.4740
    11.7721  11.8201  11.8844  12.0744  12.0836  12.1025  12.8510  13.0495
    13.0712  13.1663  13.1822  13.2627  13.2918  13.3342  13.3850  13.4173
    13.4390  13.4644  13.4925  13.5326  13.5664  13.5887  13.6264  13.6751
    13.7033  13.8503  13.9990  14.5450  15.0681  15.4008  15.5471  15.6076
    15.6528  15.7435  15.8899  16.3361  16.4864  16.5499  17.1447  17.3245
    17.6075  18.5695  18.7269  18.8908  18.9187  19.0827  19.1985  19.3477
    19.5709  19.6822  19.7277  19.8642  19.8965  20.1109  20.1342  20.1555
    20.1643  20.2798  20.3238  20.4332  20.4612  20.4997  20.6612  20.8752
    21.0692  21.1920  21.4679  21.5673  21.6107  21.7365  21.7651  21.8349
    21.9576  21.9838  22.0410  22.0699  22.0894  22.3208  22.4273  22.4398
    22.5100  22.5958  22.6049  22.6764  22.7447  22.7827  22.8976  22.9210
    23.0166  23.0445  23.1378  23.1501  23.3161  23.4469  23.4546  23.5904
    23.6533  23.6726  23.7927  23.8786  24.0450  24.1444  24.3909  24.7411
    24.8876  24.9878  25.0822  25.5438  25.6116  25.7539  26.0834  26.2727
    26.4657  26.6562  26.7237  26.8801  27.0864  27.1853  27.2344  27.5242
    27.6328  27.7035  27.7420  27.9675  28.0664  28.2064  28.3287  28.4431
    28.5454  28.6093  28.7264  28.8321  29.0348  29.6072  29.8255  29.9245
    30.1975  30.2886  30.4877  30.6121  30.9816  31.0912  31.1619  31.3838
    31.4996  31.6330  31.7432  32.0804  32.1213  32.2549  32.6323  32.7354
    32.8173  32.9989  33.0753  33.1099  33.2238  33.3862  33.5223  33.5661
    33.6841  33.7711  33.9587  34.0282  34.0742  34.1868  34.2402  34.2748
    34.3930  34.4466  34.5834  34.5866  34.6558  34.8885  35.0487  35.1389
    35.3694  35.3914  35.4815  35.7010  35.8105  35.8802  36.0039  36.0870
    36.1183  36.2004  36.3280  36.3923  36.5348  36.6269  36.7146  36.7688
    36.8327  36.9525  37.1136  37.1820  37.2776  37.3831  37.4074  37.5042
    37.5498  37.6219  37.7634  37.7880  37.8997  37.9215  38.0470  38.1588
    38.2362  38.2660  38.3072  38.4609  38.4903  38.5329  38.7623  38.7877
    38.8173  38.9978  39.0526  39.0871  39.2764  39.3716  39.4567  39.5281
    39.6070  39.7267  39.7653  39.9158  40.0431  40.1330  40.2601  40.3390
    40.4440  40.4889  40.5321  40.6140  40.6728  40.8063  40.9169  41.0629
    41.1873  41.2721  41.3562  41.3974  41.4757  41.7004  41.7328  41.8235
    41.8672  41.9195  41.9903  42.0328  42.1779  42.2567  42.3131  42.3867
    42.5034  42.6060  42.6332  42.6963  42.9516  43.0341  43.1447  43.2669
    43.4110  43.5239  43.6663  43.7934  43.9159  44.0302  44.1373  44.3903
    44.4717  44.5049  44.5880  44.9104  44.9318  44.9958  45.0809  45.0876
    45.1782  45.3371  45.4147  45.4280  45.4910  45.5209  45.6591  45.7270
    45.7749  45.8714  45.9640  46.0492  46.1177  46.1792  46.3136  46.3597
    46.5027  46.5338  46.6314  46.6540  46.8112  46.9013  47.0008  47.2279
    47.2715  47.3111  47.5011  47.5369  47.6015  47.7374  47.7911  47.9168
    47.9435  48.0664  48.1994  48.2968  48.3629  48.4046  48.4639  48.5086
    48.6515  48.7231  48.7719  48.9304  49.0233  49.0678  49.1483  49.2635
    49.3753  49.4040  49.4368  49.4762  49.6152  49.6759  49.7735  49.8164
    49.9744  50.0175  50.0229  50.0423  50.1825  50.2205  50.2999  50.3445
    50.4884  50.6212  50.7540  50.8005  50.8887  51.0987  51.1205  51.1340
    51.2035  51.3305  51.3904  51.4122  51.5235  51.6269  51.7016  51.7225
    51.7416  51.8384  51.8487  51.9191  51.9481  51.9933  52.1078  52.1303
    52.1805  52.2411  52.3029  52.3284  52.4070  52.5061  52.5627  52.6803
    52.7593  52.7753  52.8388  52.9798  53.0107  53.1124  53.1574  53.1785
    53.2032  53.2296  53.3914  53.4330  53.4969  53.6085  53.6763  53.7812
    53.9186  53.9516  54.0235  54.1477  54.2036  54.3012  54.3547  54.4571
    54.5908  54.6133  54.7309  54.9258  54.9770  55.0395  55.1817  55.2314
    55.2801  55.4336  55.5963  55.6784  55.7469  55.8457  55.8884  56.0382
    56.1546  56.3055  56.3311  56.3579  56.4990  56.5588  56.6142  56.6827
    56.7301  56.8194  56.8289  56.8988  56.9263  57.0191  57.2001  57.2245
    57.3243  57.5391  57.5931  57.7277  57.7421  57.8777  58.0433  58.1573

          k = 0.0312 0.0902 0.2815 ( 49773 PWs)   bands (ev):

   -47.3982 -47.3971 -47.3770 -47.3637 -47.2806 -47.2490 -47.2284 -47.2273
   -47.1911 -47.1900 -25.1688 -25.1458 -25.0713 -24.9578 -24.9412 -24.9156
   -24.8942 -24.8712 -24.8551 -24.8372 -24.8182 -24.7928 -24.7884 -24.7233
   -24.7162 -24.7106 -24.7054 -24.7015 -24.5924 -24.5156 -24.5128 -24.4915
   -24.4769 -24.4329 -24.4260 -24.4246 -24.4175 -24.4156 -24.3449 -24.3438
   -10.1012 -10.0257  -9.6887  -9.3174  -9.2088  -9.1274  -9.1129  -9.0572
    -8.9629  -8.9376  -8.9111  -8.9073  -8.8248  -8.7123  -8.6655  -8.6274
    -8.5712  -8.5672  -8.5479  -8.4989  -8.4961  -8.4174  -8.4035  -8.2471
     2.1454   2.2461   2.2777   2.3634   2.4061   2.4553   2.4814   2.8295
     2.8739   2.9147   3.1832   3.2018   3.2080   3.2646   3.2828   3.3218
     3.3561   3.4218   3.5001   3.5109   3.6671   3.7761   3.8059   4.0305
     4.0727   4.1328   4.1408   4.2286   4.2496   4.2919   4.3146   4.3650
     4.3958   4.5241   4.6083   4.7205   4.7466   4.8539   4.9126   4.9801
     5.0752   5.1024   5.2474   5.2577   5.3207   5.3626   5.4081   5.4205
     5.4962   5.5226   5.5601   5.6152   5.6306   5.6694   5.7015   5.7229
     5.8042   5.8775   5.9616   5.9895   6.0205   6.1401   6.2044   6.3136
     6.3252   6.4531   6.5126   6.5258   6.5872   6.6049   6.6302   6.6526
     8.3234   8.4568   8.5884   8.6343   8.7061   8.8568  10.2679  10.3527
    10.4623  10.4683  10.5558  10.6227  10.7474  10.7602  10.7763  10.8057
    10.8418  10.8543  11.0717  11.0768  11.0883  11.3846  11.4317  11.4786
    11.7693  11.8231  11.8846  12.0742  12.0845  12.1018  12.8502  13.0515
    13.0727  13.1712  13.1833  13.2455  13.2954  13.3511  13.3870  13.4092
    13.4361  13.4752  13.4924  13.5121  13.5635  13.6038  13.6513  13.6636
    13.7064  13.8077  14.0641  14.3969  15.1759  15.4739  15.6140  15.6651
    15.7203  15.7262  15.8930  16.1315  16.2968  16.3728  17.3500  17.4950
    17.8058  18.4149  18.5796  18.7827  18.9719  19.1120  19.1770  19.3324
    19.6646  19.6872  19.7352  19.8628  19.8988  20.0776  20.1117  20.1525
    20.1776  20.3042  20.3232  20.4466  20.4529  20.4581  20.6646  20.9418
    21.1306  21.2409  21.4545  21.5242  21.5673  21.6941  21.7693  21.8610
    21.9190  21.9641  22.0133  22.0906  22.1192  22.3162  22.3865  22.4909
    22.5357  22.5580  22.6363  22.7042  22.7293  22.7933  22.8820  22.9630
    22.9742  23.0470  23.1135  23.1418  23.3102  23.4399  23.4668  23.5532
    23.6457  23.6921  23.7977  23.8773  24.0599  24.0870  24.4107  24.8068
    24.9749  25.0435  25.1218  25.5303  25.5878  25.7186  26.0809  26.1157
    26.3994  26.6739  26.7079  26.9115  27.0848  27.1916  27.2667  27.5146
    27.5298  27.6453  27.8674  28.0087  28.0769  28.2758  28.3179  28.4238
    28.5445  28.6082  28.8508  29.0545  29.1018  29.4972  29.5934  29.7925
    29.9309  30.1713  30.4969  30.6653  31.0085  31.1534  31.2252  31.2984
    31.6728  31.7856  31.9991  32.1760  32.2409  32.2833  32.5428  32.7652
    32.8100  32.9771  33.0609  33.1491  33.2199  33.3718  33.5506  33.5975
    33.7023  33.7773  33.8233  33.8528  33.9992  34.1250  34.1648  34.2176
    34.3042  34.3647  34.4382  34.4657  34.6301  34.8346  34.8829  35.1476
    35.2347  35.3525  35.6367  35.8057  35.8311  35.9081  35.9791  36.0971
    36.1797  36.3151  36.4009  36.5310  36.6149  36.6835  36.7475  36.8099
    36.8827  37.0286  37.1041  37.1860  37.3789  37.4929  37.5080  37.5234
    37.6749  37.7133  37.7728  37.8399  37.9223  37.9591  38.0261  38.1862
    38.2904  38.3201  38.3667  38.3833  38.4903  38.5446  38.7254  38.7655
    38.8583  38.9420  39.0196  39.0335  39.2437  39.3792  39.4537  39.4772
    39.6542  39.6741  39.7645  39.7649  39.9304  40.0854  40.1294  40.1560
    40.2751  40.3218  40.4400  40.5498  40.7124  40.7508  40.8920  40.9907
    41.1149  41.1590  41.1763  41.3483  41.4915  41.6358  41.7215  41.7822
    41.9316  41.9757  42.1059  42.1313  42.2417  42.2857  42.3213  42.4074
    42.4727  42.5698  42.5990  42.7196  42.8955  43.0195  43.2199  43.3514
    43.4206  43.7441  43.9859  44.0503  44.0647  44.2435  44.2728  44.3842
    44.4962  44.6754  44.8048  44.8368  44.8620  44.9521  45.1140  45.1294
    45.1580  45.3159  45.3770  45.4714  45.5370  45.5699  45.6621  45.7410
    45.8090  45.8583  45.8965  45.9851  46.0444  46.0933  46.2633  46.3180
    46.4168  46.4870  46.5823  46.6851  46.7262  46.7702  46.9093  47.1073
    47.2114  47.2654  47.3000  47.3818  47.5390  47.6510  47.7629  47.7883
    47.9566  48.1221  48.1850  48.2755  48.3163  48.5129  48.5265  48.6153
    48.7093  48.7446  48.8131  48.9372  48.9964  49.0683  49.2195  49.2609
    49.4000  49.4535  49.5137  49.6110  49.6529  49.6829  49.7464  49.8210
    49.8871  49.9372  50.0052  50.1124  50.1672  50.2071  50.3414  50.4221
    50.4937  50.5871  50.6876  50.8038  50.9331  50.9495  51.1157  51.1696
    51.2440  51.3175  51.4042  51.4685  51.5298  51.5923  51.6625  51.6888
    51.7441  51.8153  51.8431  51.9687  51.9960  52.0276  52.1002  52.1346
    52.2315  52.2489  52.2847  52.3120  52.4072  52.4608  52.4908  52.6049
    52.7016  52.7479  52.8279  52.9021  52.9481  53.0507  53.0869  53.1473
    53.2483  53.2910  53.4074  53.4262  53.4612  53.6696  53.6974  53.8237
    53.8548  53.9198  54.0638  54.2224  54.3038  54.3964  54.4572  54.5627
    54.6077  54.6713  54.8078  54.9320  55.0386  55.1321  55.2355  55.2416
    55.3399  55.6015  55.6609  55.7320  55.8080  55.8546  56.0109  56.0459
    56.0982  56.2387  56.2824  56.3875  56.4727  56.5308  56.5717  56.6166
    56.7040  56.7960  56.8685  56.9060  56.9830  57.1070  57.1216  57.2344
    57.3211  57.4448  57.5465  57.6111  57.7265  57.8957  57.9544  58.0737

          k = 0.0312 0.3789 0.0768 ( 49752 PWs)   bands (ev):

   -47.3948 -47.3942 -47.3735 -47.3667 -47.2747 -47.2591 -47.2218 -47.2206
   -47.2026 -47.2015 -25.0873 -25.0682 -24.9994 -24.9389 -24.9171 -24.8949
   -24.8743 -24.8675 -24.8402 -24.8207 -24.8120 -24.8074 -24.7805 -24.7786
   -24.7716 -24.7360 -24.7097 -24.7039 -24.5681 -24.5229 -24.5118 -24.5102
   -24.4811 -24.4704 -24.4647 -24.4555 -24.4215 -24.4200 -24.3946 -24.3931
    -9.9055  -9.8209  -9.5355  -9.3608  -9.2196  -9.1634  -9.0916  -9.0677
    -9.0004  -8.9782  -8.9422  -8.9037  -8.8668  -8.7901  -8.7372  -8.7088
    -8.6314  -8.5891  -8.5340  -8.5214  -8.4830  -8.4384  -8.4219  -8.3365
     2.4943   2.5349   2.5969   2.6281   2.7299   2.7993   2.8341   3.0295
     3.0827   3.1086   3.1668   3.2640   3.2911   3.3022   3.3184   3.3600
     3.4296   3.4464   3.5264   3.6639   3.6918   3.7621   3.7813   3.9108
     3.9554   4.0475   4.0575   4.1492   4.2110   4.2493   4.3018   4.3243
     4.4335   4.4849   4.5469   4.6177   4.7009   4.7241   4.7923   4.9066
     4.9737   4.9875   5.0601   5.0774   5.1105   5.1547   5.1877   5.2672
     5.3039   5.3196   5.3472   5.4496   5.5167   5.6006   5.6466   5.7006
     5.7579   5.7847   5.8275   5.8613   5.9028   5.9907   6.0326   6.0856
     6.1644   6.2020   6.2710   6.3944   6.4415   6.5497   6.5605   6.6352
     8.5598   8.5745   8.7375   8.8375   8.9814   9.0494  10.3980  10.4512
    10.4653  10.5847  10.7070  10.7110  10.7216  10.7541  10.7853  10.8396
    10.8662  10.9120  11.2497  11.3074  11.3431  11.4267  11.4640  11.5361
    11.7183  11.7267  11.7722  11.8325  11.8752  11.9149  12.6715  12.7204
    12.8702  12.9146  12.9825  13.0358  13.1047  13.1333  13.1940  13.2676
    13.3143  13.3359  13.3643  13.4315  13.4436  13.4944  13.5284  13.5728
    13.6936  13.7252  14.7376  15.4539  15.6442  15.7390  16.3889  16.5380
    16.5723  16.6525  16.7569  16.8677  16.8802  17.0124  17.0739  17.7200
    17.9933  18.0527  18.3916  18.5210  18.5692  18.8678  18.9865  19.2412
    19.3754  19.4163  19.6015  19.6994  19.8077  19.8937  19.9481  19.9792
    20.0509  20.1918  20.2568  20.3105  20.4479  20.6274  20.6455  20.7291
    20.8224  21.0425  21.1418  21.5545  21.6181  21.7278  21.8318  21.8927
    21.9141  22.0366  22.1450  22.1999  22.2305  22.3011  22.3836  22.4272
    22.5277  22.6245  22.6980  22.7760  22.7825  22.9039  23.0720  23.1495
    23.1689  23.2916  23.3199  23.3243  23.5057  23.5393  23.5896  23.6508
    23.7134  23.8236  24.0562  24.1361  24.2362  24.3586  24.5329  24.5678
    24.6280  24.7482  24.8146  25.0293  25.1370  25.2972  25.3647  25.7672
    25.8956  25.9641  26.2196  26.5917  26.6425  26.7704  26.8620  27.1177
    27.2034  27.4851  27.7451  27.9339  28.0407  28.3074  28.4909  28.6198
    28.7176  28.9798  29.0607  29.1073  29.2143  29.2879  29.5636  30.2035
    30.2963  30.3219  30.7534  30.8199  31.0564  31.1681  31.3661  31.4318
    31.5613  31.5735  31.7378  31.8285  31.9374  31.9505  32.1501  32.2560
    32.3211  32.6453  32.6744  32.9210  33.1634  33.2127  33.3809  33.4564
    33.4886  33.6276  33.7314  33.9143  34.0234  34.1940  34.2653  34.3484
    34.4913  34.5194  34.5632  34.6518  34.7608  34.8260  34.9155  35.0804
    35.1240  35.2646  35.3331  35.5147  35.6293  35.7038  35.8985  36.1247
    36.2970  36.5355  36.6934  36.7639  36.8676  36.9757  37.0443  37.1490
    37.1892  37.2398  37.3263  37.4020  37.4768  37.5216  37.5730  37.7227
    37.9334  38.0064  38.0424  38.2099  38.2648  38.3203  38.4237  38.4548
    38.5261  38.5933  38.6631  38.6837  38.8276  38.9174  38.9303  39.0888
    39.1204  39.2179  39.3059  39.3574  39.4001  39.5082  39.5849  39.6842
    39.7216  39.8271  39.9936  40.0150  40.2161  40.2811  40.3044  40.4139
    40.4956  40.7055  40.8013  40.8585  40.9266  41.0399  41.1203  41.1543
    41.2275  41.3479  41.4247  41.4904  41.6138  41.7346  41.7721  41.8117
    41.8821  41.9468  41.9886  42.0488  42.1550  42.2333  42.3162  42.4925
    42.5368  42.6740  42.7175  42.7512  42.8795  43.0171  43.0697  43.1196
    43.1959  43.2283  43.3237  43.4196  43.5378  43.6238  43.6531  43.7465
    43.8651  44.0631  44.2530  44.3065  44.3871  44.5055  44.5913  44.7743
    44.8574  44.9420  45.0216  45.0953  45.2331  45.2510  45.4401  45.5858
    45.6958  45.7767  45.8501  45.8867  46.0263  46.1095  46.2655  46.3098
    46.4092  46.4316  46.5176  46.5952  46.7408  46.8608  46.9025  46.9388
    47.0310  47.2053  47.2766  47.3956  47.4533  47.5694  47.5947  47.7171
    47.7578  47.8745  47.9273  48.0645  48.1126  48.1628  48.2745  48.3107
    48.4499  48.4664  48.7405  48.8247  48.9414  49.0193  49.1269  49.2019
    49.2482  49.3158  49.3870  49.5180  49.5727  49.5783  49.6730  49.6967
    49.8578  49.9410  49.9732  50.0971  50.1335  50.2013  50.3057  50.4039
    50.4824  50.5607  50.6097  50.7453  50.7960  50.9165  51.0695  51.1098
    51.1976  51.2406  51.3630  51.5183  51.5664  51.7124  51.7916  51.8395
    51.9882  52.0249  52.0936  52.1042  52.3000  52.3506  52.3744  52.5123
    52.6098  52.6693  52.6936  52.7697  52.8289  52.9295  52.9593  53.0098
    53.0787  53.1282  53.2097  53.2473  53.3354  53.4696  53.5031  53.5560
    53.5748  53.6237  53.7256  53.8038  53.8389  53.9791  54.0905  54.1063
    54.1527  54.2703  54.3099  54.3774  54.4793  54.5006  54.5724  54.7509
    54.8382  54.8708  54.8929  55.0234  55.0664  55.1635  55.3200  55.3932
    55.4217  55.5884  55.6690  55.7493  55.8500  55.9378  55.9856  56.0830
    56.1857  56.2266  56.3893  56.4242  56.5310  56.6103  56.6943  56.7477
    56.9151  57.0005  57.1075  57.1755  57.3821  57.4545  57.5133  57.5744
    57.6467  57.7203  57.8520  57.9802  58.0361  58.1494  58.1911  58.2509

          k = 0.0312 0.3789 0.2815 ( 49760 PWs)   bands (ev):

   -47.3948 -47.3942 -47.3735 -47.3667 -47.2747 -47.2591 -47.2218 -47.2206
   -47.2026 -47.2015 -25.0873 -25.0682 -24.9994 -24.9389 -24.9171 -24.8949
   -24.8743 -24.8675 -24.8402 -24.8207 -24.8120 -24.8073 -24.7805 -24.7786
   -24.7716 -24.7360 -24.7096 -24.7040 -24.5681 -24.5229 -24.5118 -24.5102
   -24.4811 -24.4705 -24.4646 -24.4555 -24.4215 -24.4200 -24.3947 -24.3930
    -9.8984  -9.8327  -9.5245  -9.3685  -9.2082  -9.1745  -9.0957  -9.0623
    -8.9930  -8.9843  -8.9264  -8.9071  -8.8911  -8.7962  -8.7268  -8.7090
    -8.5942  -8.5868  -8.5621  -8.5406  -8.4623  -8.4498  -8.4159  -8.3374
     2.4805   2.5658   2.6143   2.6644   2.6768   2.7696   2.8584   2.9958
     3.0588   3.1036   3.1303   3.2518   3.2795   3.3215   3.3773   3.3891
     3.4217   3.4859   3.5774   3.6134   3.6566   3.7664   3.7708   3.9090
     4.0124   4.0303   4.0854   4.1183   4.2017   4.2632   4.3199   4.3552
     4.4309   4.4967   4.5396   4.5780   4.7014   4.7387   4.7636   4.8230
     4.9645   4.9711   5.0095   5.0640   5.1180   5.1653   5.2161   5.2440
     5.3139   5.3749   5.4372   5.4473   5.5106   5.5406   5.6683   5.7059
     5.7929   5.8037   5.8368   5.8512   5.9366   5.9698   6.0071   6.0514
     6.1727   6.2120   6.3462   6.3697   6.4243   6.4858   6.5779   6.6321
     8.5118   8.6682   8.6908   8.8555   8.9509   9.0653  10.3879  10.4324
    10.5185  10.5904  10.6412  10.6986  10.7237  10.7673  10.8334  10.8381
    10.8696  10.8972  11.2506  11.2998  11.3499  11.4231  11.4674  11.5362
    11.7148  11.7363  11.7723  11.8189  11.8754  11.9226  12.6740  12.7375
    12.8529  12.8789  13.0037  13.0145  13.1020  13.1766  13.2128  13.2283
    13.3156  13.3363  13.3670  13.4283  13.4786  13.4940  13.5436  13.5943
    13.6200  13.7291  14.9229  15.0483  15.8234  16.0473  16.0976  16.3836
    16.5428  16.6207  16.7316  16.8564  17.0843  17.2163  17.3275  17.4840
    17.7730  17.8705  18.5173  18.5894  18.6941  19.0094  19.0265  19.1723
    19.2820  19.3248  19.6126  19.6309  19.7690  19.8336  19.9440  20.0593
    20.1097  20.1712  20.3000  20.4128  20.4534  20.5270  20.5836  20.7890
    20.8708  20.9340  21.3740  21.4506  21.5860  21.6903  21.8487  21.8755
    21.9277  22.0524  22.1187  22.1790  22.2336  22.3546  22.3873  22.4555
    22.4914  22.5895  22.7065  22.7714  22.8263  22.9332  22.9863  23.0353
    23.1364  23.2570  23.3317  23.3743  23.5302  23.5769  23.6592  23.7326
    23.7902  23.8563  24.0202  24.0780  24.1968  24.2557  24.3070  24.5409
    24.6528  24.7728  24.8966  25.0448  25.2770  25.4190  25.4782  25.7077
    25.7646  26.1684  26.2460  26.3465  26.6153  26.7655  27.0837  27.1670
    27.2578  27.3168  27.6781  28.0091  28.0503  28.1452  28.2783  28.3382
    28.4791  28.8261  29.1455  29.2541  29.7520  29.8542  29.9386  30.1568
    30.2028  30.3296  30.4607  30.5986  30.8421  30.9237  31.0893  31.3858
    31.5038  31.7090  31.8511  32.0051  32.0539  32.1044  32.2323  32.3652
    32.3901  32.6246  32.7353  32.8484  33.1014  33.2140  33.3484  33.5044
    33.5715  33.5803  33.7324  33.8022  33.9419  33.9921  34.1188  34.1716
    34.2722  34.3992  34.5202  34.6973  34.8701  34.8940  35.0714  35.1579
    35.2365  35.3706  35.6298  35.7294  35.7900  35.9375  36.0249  36.1823
    36.2616  36.4696  36.4870  36.5402  36.6751  36.7466  36.8585  37.0003
    37.0481  37.2953  37.3653  37.4460  37.4924  37.6768  37.7891  37.8364
    37.8743  37.9267  37.9607  38.0213  38.2021  38.3414  38.3621  38.4057
    38.4830  38.6530  38.7161  38.7638  38.8003  38.8569  39.0312  39.1300
    39.1616  39.3299  39.3408  39.3815  39.4295  39.5217  39.6421  39.6942
    39.7646  39.8350  39.9927  40.0877  40.1584  40.3080  40.3785  40.4213
    40.5408  40.5534  40.7218  40.7513  40.8873  40.9255  41.0816  41.2194
    41.3205  41.3902  41.4781  41.5856  41.6199  41.7144  41.7662  41.8640
    41.8943  42.0105  42.0417  42.1401  42.1730  42.2146  42.2690  42.4415
    42.5266  42.6125  42.7278  42.7864  42.8216  43.0050  43.0202  43.1205
    43.1572  43.2918  43.3750  43.4424  43.5814  43.6918  43.7391  43.8420
    43.9260  44.0115  44.1778  44.2109  44.2984  44.4742  44.6079  44.6768
    44.7561  44.8357  44.9535  44.9931  45.1626  45.2025  45.2956  45.4024
    45.5355  45.7035  45.7761  45.8425  46.0439  46.1084  46.2423  46.2871
    46.3672  46.4932  46.5254  46.7619  46.7745  46.8732  46.9597  47.0243
    47.1279  47.2073  47.2383  47.4344  47.5456  47.6056  47.6802  47.7277
    47.8470  47.8975  48.0195  48.0644  48.1429  48.3284  48.4041  48.4914
    48.5553  48.6079  48.7093  48.8287  48.9306  48.9780  49.0816  49.1809
    49.2015  49.2756  49.3621  49.3879  49.4974  49.6694  49.7362  49.8289
    49.9316  50.0053  50.0737  50.0861  50.1861  50.2791  50.3403  50.4945
    50.5423  50.6129  50.7124  50.8263  50.9102  50.9440  51.0433  51.1434
    51.2172  51.2995  51.3703  51.4253  51.5534  51.5783  51.6429  51.8287
    51.8591  51.9695  51.9906  52.0888  52.1066  52.3202  52.3434  52.4320
    52.4438  52.5248  52.5746  52.6109  52.7230  52.8226  52.8662  52.8864
    52.9819  53.0657  53.1364  53.1762  53.2263  53.2695  53.4121  53.4927
    53.5571  53.5913  53.7678  53.7941  53.8769  53.9302  54.0161  54.1116
    54.1463  54.3146  54.4023  54.5070  54.5177  54.5755  54.7179  54.7281
    54.8463  54.9078  54.9875  55.0538  55.1603  55.2438  55.2817  55.3574
    55.4386  55.5289  55.7159  55.8831  55.9886  56.0085  56.0754  56.1355
    56.2951  56.3092  56.4421  56.5014  56.5372  56.6273  56.6727  56.8473
    56.8932  57.0601  57.1634  57.1901  57.2365  57.2966  57.3691  57.4722
    57.5201  57.6553  57.8812  57.9284  57.9533  58.0224  58.1373  58.2413

          k = 0.0312 0.6676 0.0768 ( 49786 PWs)   bands (ev):

   -47.3935 -47.3929 -47.3723 -47.3679 -47.2721 -47.2626 -47.2200 -47.2188
   -47.2058 -47.2047 -25.0576 -25.0409 -24.9831 -24.9514 -24.8981 -24.8871
   -24.8707 -24.8550 -24.8247 -24.8148 -24.8123 -24.8074 -24.8005 -24.7929
   -24.7723 -24.7455 -24.7083 -24.7050 -24.5600 -24.5413 -24.5395 -24.5308
   -24.4787 -24.4738 -24.4628 -24.4542 -24.4251 -24.4227 -24.4066 -24.4040
    -9.8089  -9.7461  -9.4670  -9.3937  -9.2677  -9.2099  -9.0944  -9.0661
    -9.0087  -8.9806  -8.9394  -8.9281  -8.8575  -8.8129  -8.7538  -8.7356
    -8.6285  -8.5977  -8.5543  -8.5273  -8.4796  -8.4541  -8.4246  -8.3432
     2.5825   2.6700   2.7151   2.7651   2.7819   2.8967   2.9614   3.0111
     3.1288   3.1372   3.2312   3.2923   3.3453   3.3609   3.3882   3.4366
     3.4933   3.4978   3.5691   3.6139   3.7306   3.7808   3.8577   3.9366
     4.0035   4.0253   4.1273   4.1897   4.1911   4.2318   4.2458   4.2908
     4.3917   4.4116   4.4788   4.5540   4.5701   4.6323   4.6587   4.6596
     4.7693   4.8015   4.8731   5.0066   5.0114   5.1374   5.2018   5.2139
     5.2365   5.3074   5.3728   5.4548   5.4893   5.5528   5.5983   5.6334
     5.7194   5.8024   5.8532   5.8936   5.9319   5.9936   6.0146   6.0337
     6.1749   6.1976   6.3201   6.3392   6.3960   6.4375   6.5274   6.6167
     8.5592   8.6586   8.7350   8.8951   9.0924   9.1788  10.3701  10.4086
    10.5385  10.5900  10.6735  10.7187  10.7522  10.7871  10.8356  10.8585
    10.8925  10.9006  11.3082  11.3654  11.4319  11.4388  11.4912  11.5472
    11.6506  11.6793  11.7324  11.8061  11.8293  11.8876  12.5591  12.6357
    12.8390  12.8785  12.9574  12.9822  13.0387  13.1112  13.1682  13.2036
    13.2510  13.2683  13.3466  13.3924  13.4168  13.4947  13.5334  13.5473
    13.6569  13.7166  15.2833  15.4042  15.7579  16.0575  16.4401  16.7745
    16.8255  16.9344  17.0215  17.1857  17.2352  17.3424  17.4028  17.5853
    17.7554  18.0108  18.2017  18.2886  18.4048  18.7683  19.0323  19.1160
    19.2405  19.3538  19.5056  19.5198  19.7134  19.7914  19.8490  19.9426
    19.9784  20.2298  20.2462  20.3212  20.3712  20.4420  20.5900  20.7098
    21.0511  21.1162  21.2013  21.3574  21.7026  21.7558  21.8786  21.9429
    22.0016  22.0820  22.1504  22.2135  22.2277  22.2614  22.4209  22.4775
    22.5182  22.5927  22.7437  22.8008  22.8901  22.9028  22.9747  23.0956
    23.1499  23.2427  23.2923  23.4959  23.5891  23.6184  23.7357  23.8186
    23.8270  23.9724  23.9815  24.0673  24.1591  24.2133  24.2529  24.3614
    24.4160  24.5715  24.8119  25.0492  25.2699  25.4188  25.5102  25.6690
    25.8247  25.9719  26.1216  26.2946  26.4769  26.5701  26.7207  26.9441
    27.1042  27.3759  27.5963  28.1095  28.1763  28.4386  28.4561  28.5424
    28.7706  28.9947  29.1008  29.2508  29.4360  29.7478  30.0751  30.2011
    30.2808  30.4135  30.4954  30.5568  30.6852  30.7874  30.8179  30.9869
    31.3141  31.4506  31.4998  31.6317  31.7832  32.0113  32.0600  32.2128
    32.3123  32.5957  32.8351  32.8965  33.0128  33.0651  33.1435  33.3812
    33.4993  33.7114  33.7767  33.8232  33.8409  34.0179  34.1035  34.2403
    34.4215  34.6423  34.8141  34.9447  35.1952  35.2402  35.3760  35.4340
    35.5804  35.7160  35.7474  35.8734  35.9226  35.9618  36.1360  36.2308
    36.3549  36.3787  36.5301  36.5802  36.8086  36.8835  36.9118  37.1628
    37.2780  37.3363  37.3893  37.5346  37.6143  37.7455  37.8218  37.8499
    37.9701  38.0875  38.1634  38.2006  38.2377  38.3368  38.3742  38.4214
    38.5420  38.5551  38.6983  38.7301  38.8003  38.8548  38.9503  39.0214
    39.0700  39.2006  39.2214  39.3488  39.5112  39.5424  39.6581  39.7632
    39.8092  39.8894  39.9514  39.9997  40.1002  40.1638  40.2606  40.3710
    40.4013  40.5027  40.5951  40.7453  40.8004  40.8910  40.9727  41.0766
    41.1274  41.2150  41.3399  41.4964  41.5148  41.6056  41.6333  41.8129
    41.8481  41.9102  42.0103  42.0160  42.2190  42.3193  42.4479  42.5342
    42.6446  42.7869  42.7920  42.9146  42.9563  43.0118  43.0908  43.2571
    43.3404  43.5052  43.5751  43.6603  43.7569  43.7628  43.8978  43.9324
    44.0581  44.1439  44.1533  44.2001  44.3199  44.3969  44.5217  44.6278
    44.6725  44.8048  44.8516  44.9335  44.9896  45.1271  45.2482  45.3171
    45.3659  45.4495  45.6045  45.7357  45.7558  45.9273  46.0457  46.1734
    46.2456  46.3245  46.4649  46.5795  46.6551  46.7246  46.8231  46.8448
    46.9917  47.0578  47.1716  47.3282  47.5283  47.5733  47.6839  47.8002
    47.8807  47.9721  47.9915  48.1974  48.2151  48.3599  48.4750  48.5063
    48.5991  48.6123  48.7588  48.8624  48.9171  49.0179  49.1347  49.1856
    49.2255  49.2905  49.4385  49.5027  49.5627  49.6126  49.7091  49.8231
    49.8313  49.9462  50.0719  50.1411  50.2032  50.2554  50.4202  50.4516
    50.4678  50.5633  50.6973  50.7643  50.8525  50.9805  50.9973  51.1011
    51.1633  51.3614  51.3919  51.4484  51.5649  51.6684  51.7084  51.7816
    51.8380  51.9610  51.9713  52.0623  52.1827  52.2182  52.2754  52.3400
    52.3883  52.4348  52.5122  52.5507  52.7106  52.7662  52.8229  52.8893
    52.9339  53.0460  53.0772  53.1771  53.2259  53.3526  53.3644  53.5126
    53.6021  53.7269  53.8711  53.8872  53.9884  54.0682  54.1506  54.1736
    54.3329  54.4255  54.4708  54.5996  54.7423  54.7815  54.8925  54.9950
    55.0179  55.1185  55.1602  55.2945  55.3317  55.3959  55.4985  55.5369
    55.7162  55.8401  55.8818  55.9956  56.0299  56.1494  56.2858  56.3226
    56.4197  56.5057  56.5652  56.6420  56.6784  56.7995  56.8749  56.8988
    56.9859  57.0270  57.0789  57.1127  57.2536  57.3800  57.4401  57.4826
    57.6453  57.6908  57.7470  57.8593  57.9469  58.0264  58.0859  58.1818

          k = 0.0312 0.6676 0.2815 ( 49793 PWs)   bands (ev):

   -47.3935 -47.3929 -47.3723 -47.3679 -47.2721 -47.2625 -47.2200 -47.2188
   -47.2058 -47.2047 -25.0576 -25.0409 -24.9831 -24.9514 -24.8981 -24.8870
   -24.8708 -24.8549 -24.8247 -24.8150 -24.8123 -24.8073 -24.8005 -24.7929
   -24.7723 -24.7455 -24.7084 -24.7049 -24.5600 -24.5413 -24.5395 -24.5308
   -24.4787 -24.4738 -24.4630 -24.4541 -24.4251 -24.4227 -24.4064 -24.4042
    -9.8031  -9.7547  -9.4620  -9.3937  -9.2554  -9.2276  -9.0953  -9.0646
    -9.0027  -8.9853  -8.9353  -8.9327  -8.8623  -8.8039  -8.7581  -8.7275
    -8.6433  -8.5801  -8.5671  -8.5170  -8.4972  -8.4468  -8.4186  -8.3459
     2.6094   2.6509   2.6739   2.7469   2.8105   2.8589   2.9829   3.0362
     3.1656   3.2147   3.2260   3.2843   3.3335   3.3666   3.3872   3.4193
     3.4580   3.4867   3.5553   3.6880   3.7191   3.7626   3.8281   3.8456
     3.9707   4.0898   4.1126   4.1677   4.1971   4.2670   4.2770   4.3158
     4.3399   4.4020   4.4338   4.4645   4.5737   4.5979   4.6507   4.7623
     4.8465   4.9123   4.9445   5.0416   5.0611   5.0906   5.1313   5.1744
     5.2712   5.3199   5.4052   5.4454   5.4489   5.4754   5.5470   5.6291
     5.7393   5.8103   5.8384   5.8945   5.9419   5.9598   6.0127   6.0473
     6.1289   6.1943   6.2632   6.3549   6.4554   6.4888   6.5398   6.6164
     8.5647   8.6400   8.7451   8.8919   9.0942   9.1782  10.3695  10.4385
    10.4795  10.6007  10.6968  10.7437  10.7565  10.7808  10.8156  10.8557
    10.8737  10.9140  11.3045  11.3853  11.4053  11.4581  11.4797  11.5486
    11.6462  11.6835  11.7328  11.8109  11.8324  11.8809  12.5762  12.6409
    12.7939  12.8805  12.9448  12.9892  13.0561  13.1058  13.1988  13.2006
    13.2453  13.2719  13.3153  13.3919  13.4382  13.4898  13.5091  13.5593
    13.6815  13.7214  15.1086  15.6274  15.8372  16.0244  16.3023  16.6904
    16.8353  16.9680  17.0953  17.1177  17.2606  17.3214  17.4408  17.6505
    17.7287  17.9672  18.0801  18.4442  18.6329  18.7522  18.8005  18.9973
    19.2418  19.4054  19.5198  19.6018  19.7440  19.7836  19.8355  19.9635
    20.0010  20.1211  20.2586  20.3535  20.4108  20.4720  20.5625  20.6629
    20.9864  21.0239  21.3622  21.5707  21.5875  21.7532  21.8958  21.9136
    21.9420  22.0188  22.0874  22.1945  22.2073  22.3164  22.3970  22.4380
    22.5762  22.6055  22.7213  22.8144  22.9003  22.9690  23.0698  23.1016
    23.1914  23.2592  23.3059  23.3970  23.5072  23.6077  23.6455  23.6903
    23.7917  23.8777  24.0762  24.1198  24.2344  24.2647  24.3754  24.4475
    24.5477  24.6898  24.7847  24.9745  25.0817  25.2199  25.4616  25.6158
    25.8831  25.9896  26.1912  26.4008  26.4667  26.5409  26.6861  26.8443
    27.2278  27.6567  27.8377  28.0228  28.0502  28.2519  28.3559  28.5157
    28.6777  28.8856  29.3134  29.5075  29.5693  29.5917  29.7713  29.8316
    30.0504  30.1913  30.5375  30.8719  30.9086  30.9892  31.1363  31.2563
    31.3614  31.3966  31.5692  31.5937  31.7762  31.7990  32.0550  32.2149
    32.2408  32.4033  32.5528  32.8199  32.9994  33.1191  33.2825  33.4113
    33.6271  33.7234  33.8242  33.9611  34.0321  34.1274  34.1546  34.2885
    34.4562  34.6279  34.6498  34.7748  34.9550  35.1095  35.1953  35.5174
    35.5656  35.6040  35.7141  35.7777  35.8799  35.9498  36.1678  36.3666
    36.4597  36.5463  36.6033  36.6502  36.7423  36.7906  36.9495  37.0264
    37.1666  37.3640  37.4655  37.5060  37.5493  37.7679  37.7841  37.8247
    37.9557  38.0220  38.0713  38.2754  38.3393  38.3450  38.4312  38.4473
    38.5292  38.6335  38.7745  38.8003  38.8808  38.9093  38.9740  39.0373
    39.1653  39.2511  39.3289  39.4357  39.4518  39.5469  39.5906  39.7472
    39.8324  39.9217  39.9495  39.9742  40.1050  40.2122  40.2668  40.3320
    40.4288  40.6007  40.6778  40.7403  40.8160  40.9119  41.0256  41.0425
    41.1998  41.3006  41.3636  41.3948  41.4183  41.5820  41.6176  41.6646
    41.7756  41.8936  41.9524  42.0565  42.1516  42.2869  42.3555  42.4495
    42.5966  42.6419  42.6686  42.8728  42.9224  43.1274  43.1864  43.2590
    43.2824  43.3654  43.4052  43.4542  43.5234  43.6408  43.7223  43.9009
    43.9743  44.0121  44.0629  44.1648  44.3494  44.4166  44.4562  44.6287
    44.8237  44.9188  44.9341  45.0341  45.1253  45.1884  45.4065  45.5304
    45.5464  45.6789  45.7764  45.8531  46.0831  46.1687  46.2065  46.2652
    46.3066  46.3506  46.5280  46.5777  46.6992  46.7352  46.8959  46.9759
    47.0651  47.1718  47.1945  47.2994  47.3654  47.4526  47.6158  47.7044
    47.8126  47.8668  47.9765  48.0236  48.1189  48.1930  48.2508  48.4435
    48.4975  48.5211  48.6862  48.8364  48.9545  49.0806  49.1587  49.1982
    49.2985  49.4166  49.4429  49.4776  49.5408  49.6168  49.6974  49.7358
    49.8054  49.9151  49.9328  50.0103  50.0961  50.1612  50.2514  50.3873
    50.4477  50.5356  50.6341  50.7123  50.7626  50.9343  50.9665  51.0901
    51.1685  51.2416  51.3029  51.4703  51.5284  51.6448  51.7614  51.8273
    51.8894  51.9932  52.0566  52.1463  52.2150  52.2545  52.2657  52.4328
    52.4464  52.5578  52.6416  52.7025  52.7499  52.7712  52.8395  52.9257
    53.1267  53.1714  53.2471  53.2794  53.3477  53.4693  53.6102  53.6771
    53.7511  53.8667  53.9459  53.9860  54.0624  54.1288  54.1866  54.2203
    54.2690  54.3461  54.4553  54.5359  54.6213  54.6449  54.7358  54.7801
    54.9421  55.0213  55.1206  55.2047  55.3837  55.3998  55.4349  55.5444
    55.6063  55.7351  55.7678  55.8835  55.9946  56.1373  56.2459  56.2752
    56.3175  56.4170  56.5305  56.5966  56.6778  56.6932  56.7609  56.9225
    56.9825  57.0497  57.1424  57.1716  57.2919  57.3206  57.4034  57.5271
    57.6015  57.7109  57.8571  57.9085  57.9415  58.0008  58.0657  58.2156

          k = 0.0312 0.9562 0.0768 ( 49749 PWs)   bands (ev):

   -47.3970 -47.3959 -47.3765 -47.3642 -47.2798 -47.2507 -47.2279 -47.2268
   -47.1930 -47.1918 -25.1510 -25.1260 -25.0558 -24.9517 -24.9365 -24.9113
   -24.8896 -24.8632 -24.8569 -24.8309 -24.8165 -24.7963 -24.7873 -24.7301
   -24.7189 -24.7155 -24.7122 -24.7014 -24.5884 -24.5168 -24.5158 -24.4942
   -24.4799 -24.4447 -24.4422 -24.4379 -24.4192 -24.4176 -24.3539 -24.3530
   -10.0628  -9.9536  -9.6687  -9.3159  -9.1898  -9.1522  -9.0977  -9.0684
    -8.9660  -8.9392  -8.9191  -8.8893  -8.8538  -8.7406  -8.6968  -8.6510
    -8.5870  -8.5729  -8.5522  -8.4943  -8.4836  -8.4351  -8.4184  -8.2617
     2.2196   2.3532   2.3792   2.4346   2.4711   2.5611   2.6047   2.8919
     2.9520   3.0170   3.1613   3.1721   3.2227   3.2433   3.2872   3.3262
     3.3933   3.4254   3.4803   3.6017   3.6949   3.7489   3.7953   3.9580
     4.0334   4.0953   4.1188   4.1686   4.2384   4.2655   4.3107   4.3848
     4.4034   4.5458   4.6199   4.6525   4.8310   4.8565   4.8982   5.0224
     5.0417   5.0556   5.1994   5.2207   5.2536   5.2627   5.3261   5.3611
     5.4425   5.4677   5.5089   5.5915   5.6131   5.6685   5.6819   5.7390
     5.7768   5.8339   5.8645   5.9144   5.9728   6.1435   6.1696   6.2081
     6.2961   6.3404   6.3582   6.4800   6.5355   6.5590   6.6188   6.6337
     8.3703   8.5763   8.6326   8.7069   8.8223   8.9031  10.3224  10.4012
    10.4545  10.4996  10.5961  10.6134  10.7295  10.7612  10.7707  10.8242
    10.8371  10.8642  11.0792  11.1168  11.1282  11.3960  11.4628  11.4751
    11.7710  11.8233  11.8781  12.0224  12.0417  12.0584  12.8371  12.9476
    12.9815  13.0890  13.1413  13.1982  13.2237  13.2913  13.3366  13.3669
    13.3821  13.4447  13.4547  13.4896  13.5107  13.5488  13.6112  13.6507
    13.6695  13.7981  14.2057  14.7084  15.2985  15.6395  15.7847  15.8429
    15.8896  16.0160  16.1506  16.2668  16.7107  16.8061  17.1704  17.3248
    17.7367  18.2757  18.7491  18.8394  18.9323  19.0758  19.1356  19.2623
    19.5157  19.6064  19.7026  19.8589  19.9063  19.9809  20.0679  20.1347
    20.1786  20.2576  20.3680  20.4047  20.4588  20.5501  20.5816  20.8225
    21.0339  21.1168  21.2743  21.5020  21.5603  21.6741  21.7568  21.8557
    21.9472  21.9750  22.0608  22.1032  22.2007  22.2978  22.4264  22.4698
    22.4898  22.6023  22.6538  22.6864  22.7143  22.8423  22.9224  23.0011
    23.0577  23.1305  23.2382  23.2957  23.4408  23.5005  23.5525  23.5875
    23.6728  23.8093  23.8469  23.9529  23.9841  24.1440  24.3936  24.6369
    24.8482  24.9183  25.1451  25.4245  25.5301  25.6571  25.7515  26.0373
    26.2517  26.3970  26.5247  26.6027  26.8505  26.9353  27.0561  27.3243
    27.4010  27.6596  27.7730  27.8890  28.0490  28.2029  28.4343  28.4990
    28.5919  28.8308  28.9709  29.3190  29.4120  29.4949  29.6686  29.7365
    30.1204  30.2162  30.3328  30.8939  31.1324  31.2770  31.3825  31.5279
    31.6157  31.7368  31.8975  32.0650  32.3391  32.3687  32.6026  32.7184
    32.7650  32.8654  33.0056  33.1051  33.2095  33.3028  33.4078  33.4638
    33.5255  33.5815  33.7556  33.7976  33.8447  33.9541  34.0182  34.0906
    34.1953  34.2253  34.3765  34.4705  34.4831  34.8489  34.9948  35.0508
    35.3886  35.4825  35.6065  35.6504  35.7210  35.8921  35.9565  36.0297
    36.1979  36.2564  36.3686  36.5426  36.6596  36.7184  36.8469  36.8905
    37.0031  37.0755  37.2124  37.2865  37.3576  37.4005  37.4773  37.5819
    37.7492  37.8091  37.8411  37.9303  38.0756  38.1087  38.1988  38.2308
    38.2698  38.4076  38.4375  38.4781  38.5372  38.6276  38.7805  38.8017
    38.9651  39.0708  39.1451  39.3023  39.3392  39.4295  39.5631  39.6768
    39.7015  39.8165  39.9225  39.9976  40.0532  40.1300  40.1504  40.2809
    40.3753  40.4439  40.5555  40.7385  40.7989  41.0107  41.0661  41.2501
    41.3194  41.3534  41.4765  41.6093  41.6557  41.7201  41.8445  41.8711
    41.9461  42.0059  42.1138  42.1446  42.2223  42.2865  42.3886  42.4405
    42.5720  42.5896  42.6344  42.6857  42.9151  42.9449  43.0244  43.1637
    43.3216  43.4513  43.6540  43.7441  43.7907  43.9276  44.1203  44.1529
    44.2729  44.3592  44.4735  44.6268  44.7054  44.7394  44.8075  44.9107
    44.9943  45.1411  45.1895  45.2359  45.3740  45.5575  45.5941  45.6277
    45.6668  45.7489  45.9096  46.0938  46.1178  46.1420  46.1979  46.2988
    46.4083  46.4246  46.5047  46.5367  46.6311  46.6973  46.8150  46.9201
    47.1028  47.3289  47.4140  47.4802  47.5966  47.6444  47.6921  47.7998
    47.8282  48.0281  48.1258  48.1735  48.2030  48.2723  48.4843  48.5739
    48.6263  48.7176  48.8560  48.8865  49.0153  49.0691  49.1527  49.2082
    49.3220  49.3840  49.5026  49.5723  49.5933  49.6672  49.6982  49.8007
    49.9121  49.9489  50.0061  50.0929  50.1668  50.3320  50.4063  50.4295
    50.4990  50.6454  50.6773  50.7839  50.9297  50.9970  51.1482  51.2145
    51.2486  51.3467  51.4379  51.5329  51.5789  51.6626  51.7355  51.8045
    51.8473  51.9061  51.9265  52.0013  52.0986  52.1246  52.2810  52.3306
    52.3655  52.4352  52.4730  52.4878  52.5346  52.6027  52.6852  52.7276
    52.7657  52.8851  52.9062  52.9515  53.0459  53.1074  53.1293  53.2965
    53.3172  53.3899  53.4626  53.4829  53.5836  53.6453  53.7356  53.8077
    53.8522  54.0288  54.0752  54.0871  54.1825  54.4198  54.4469  54.5231
    54.5915  54.7817  54.8149  54.8273  55.0021  55.1446  55.3030  55.3293
    55.3862  55.3981  55.4568  55.6327  55.8102  55.9409  56.0246  56.0913
    56.1532  56.2328  56.2668  56.3927  56.5038  56.5388  56.6484  56.7117
    56.8333  56.8413  56.8963  56.9907  57.0886  57.1330  57.3680  57.4569
    57.5068  57.6225  57.7036  57.7304  57.8413  57.9280  58.0179  58.1397

          k = 0.0312 0.9562 0.2815 ( 49765 PWs)   bands (ev):

   -47.3970 -47.3959 -47.3765 -47.3642 -47.2798 -47.2507 -47.2279 -47.2268
   -47.1930 -47.1918 -25.1510 -25.1260 -25.0557 -24.9516 -24.9366 -24.9111
   -24.8896 -24.8633 -24.8571 -24.8310 -24.8165 -24.7963 -24.7872 -24.7301
   -24.7189 -24.7154 -24.7123 -24.7014 -24.5884 -24.5167 -24.5158 -24.4942
   -24.4799 -24.4447 -24.4422 -24.4379 -24.4192 -24.4177 -24.3540 -24.3529
   -10.0493  -9.9770  -9.6504  -9.3203  -9.2091  -9.1432  -9.0936  -9.0666
    -8.9589  -8.9496  -8.9153  -8.9038  -8.8416  -8.7432  -8.6923  -8.6475
    -8.5961  -8.5596  -8.5324  -8.5209  -8.4918  -8.4274  -8.4183  -8.2619
     2.2538   2.3057   2.3931   2.4436   2.5094   2.5399   2.5665   2.8782
     2.9401   3.0065   3.1339   3.2097   3.2275   3.2413   3.2861   3.3539
     3.4233   3.4257   3.5528   3.5573   3.6550   3.7596   3.8251   3.9405
     4.0029   4.0788   4.1343   4.1623   4.2189   4.2750   4.3244   4.3555
     4.4207   4.5496   4.6484   4.6984   4.7778   4.8449   4.8868   4.9596
     5.0278   5.1352   5.1856   5.1996   5.2707   5.2879   5.3261   5.3942
     5.4166   5.4636   5.4908   5.5452   5.6116   5.6289   5.7497   5.7687
     5.7829   5.8153   5.8617   5.9762   6.0247   6.0862   6.1694   6.1972
     6.2814   6.3183   6.3567   6.5021   6.5191   6.5707   6.6149   6.6331
     8.4202   8.4851   8.6756   8.7099   8.8095   8.9117  10.3059  10.4064
    10.4614  10.5373  10.5746  10.6064  10.7333  10.7444  10.7759  10.8254
    10.8381  10.8644  11.0821  11.1014  11.1402  11.4105  11.4328  11.4913
    11.7677  11.8276  11.8776  12.0226  12.0431  12.0565  12.8423  12.9625
    12.9990  13.0276  13.1496  13.1969  13.2422  13.2882  13.3280  13.3743
    13.3806  13.4274  13.4589  13.4755  13.5274  13.5761  13.5942  13.6235
    13.6991  13.8081  14.2294  14.6354  15.3470  15.5686  15.8556  15.9593
    15.9774  16.0185  16.1807  16.3433  16.3602  16.4943  17.2519  17.6789
    17.8386  18.3550  18.5787  18.6655  18.7992  19.0754  19.1658  19.3507
    19.6278  19.6797  19.7586  19.8280  19.8501  19.9739  20.0517  20.0789
    20.1886  20.2531  20.2914  20.3793  20.4329  20.5298  20.6646  20.9164
    21.0182  21.2357  21.2629  21.4426  21.4948  21.6323  21.7703  21.8659
    21.9600  22.0072  22.0377  22.1072  22.2088  22.2853  22.3357  22.4932
    22.5271  22.5690  22.6388  22.7032  22.7854  22.7928  22.9917  23.0804
    23.1087  23.1818  23.2037  23.3023  23.3435  23.4651  23.4974  23.6027
    23.6218  23.6998  23.8177  23.9594  23.9887  24.1852  24.5379  24.7173
    24.8153  25.0322  25.1268  25.3347  25.5079  25.6537  25.6770  26.0223
    26.2439  26.3700  26.5221  26.5983  26.7567  27.0662  27.2335  27.3178
    27.5141  27.5569  27.7692  27.8310  28.0578  28.2574  28.3664  28.5763
    28.6835  28.7963  28.8979  29.1028  29.2155  29.3417  29.7065  30.0088
    30.1361  30.3186  30.4665  30.4994  30.8945  31.2123  31.6818  31.7567
    31.9416  32.0368  32.1176  32.1792  32.2655  32.3431  32.5209  32.5948
    32.7617  32.8226  32.9718  33.0253  33.0995  33.2165  33.2297  33.3189
    33.5655  33.5801  33.6850  33.8085  33.8363  33.9393  34.0091  34.1453
    34.2146  34.2411  34.2692  34.3423  34.6531  34.6694  34.8202  35.0265
    35.2013  35.2993  35.3602  35.7174  35.8494  35.8935  36.0271  36.1751
    36.4432  36.4630  36.5256  36.5784  36.6865  36.7559  36.9641  37.0554
    37.0706  37.1215  37.2720  37.3137  37.4173  37.4583  37.5223  37.5978
    37.6488  37.7676  37.8815  37.9409  38.0591  38.0990  38.1692  38.2394
    38.2558  38.3759  38.4070  38.5368  38.5987  38.7096  38.8030  38.8347
    38.9413  39.0587  39.0987  39.2506  39.2687  39.3875  39.4375  39.5521
    39.6864  39.7691  39.8046  39.9928  40.0822  40.1039  40.1324  40.3456
    40.4195  40.5107  40.6140  40.6761  40.8063  40.9068  40.9179  41.0533
    41.2384  41.3451  41.4647  41.5136  41.5423  41.6078  41.6759  41.7758
    41.8375  41.9000  41.9993  42.0955  42.1598  42.2895  42.3719  42.4616
    42.5710  42.7272  42.7878  42.9095  42.9461  42.9897  43.1643  43.2614
    43.5805  43.6722  43.7233  43.8229  43.9288  44.0637  44.2896  44.3096
    44.3513  44.4484  44.4586  44.5111  44.6456  44.7289  44.8404  44.9022
    45.0426  45.0636  45.1538  45.2880  45.3111  45.3951  45.4606  45.6484
    45.6881  45.7497  45.8058  45.9215  46.0101  46.1063  46.1813  46.3011
    46.3877  46.4993  46.5793  46.6711  46.7619  46.7971  46.9579  47.0444
    47.1331  47.1781  47.2672  47.2937  47.4283  47.5691  47.7691  47.7901
    47.8383  47.9819  48.0285  48.1126  48.2715  48.2923  48.4517  48.5712
    48.6113  48.7124  48.8693  48.8797  48.9808  49.0419  49.1449  49.1673
    49.3610  49.4023  49.4820  49.5632  49.5900  49.7555  49.7806  49.8420
    49.9004  49.9892  50.0095  50.1084  50.2149  50.2943  50.3873  50.4485
    50.5320  50.5602  50.7180  50.7477  50.8236  50.9842  51.0521  51.1910
    51.2982  51.4024  51.4560  51.4921  51.5403  51.5458  51.6802  51.7157
    51.8168  51.8829  51.9586  51.9963  52.0368  52.0842  52.1606  52.1888
    52.3212  52.3712  52.4582  52.5126  52.5675  52.6533  52.7032  52.7598
    52.7956  52.8688  52.9271  53.0012  53.0703  53.0835  53.1549  53.1870
    53.2620  53.3287  53.4673  53.6273  53.6862  53.7518  53.7767  53.8873
    53.9856  54.0419  54.2184  54.3000  54.4148  54.4619  54.5535  54.6452
    54.7057  54.7613  54.9110  54.9515  55.0415  55.0949  55.2457  55.3272
    55.4019  55.4698  55.5570  55.6477  55.6908  55.7198  56.0339  56.0610
    56.1414  56.2792  56.3315  56.4001  56.4518  56.5931  56.6191  56.7149
    56.7884  56.8196  56.9287  56.9481  57.0429  57.1745  57.2776  57.4688
    57.4955  57.6058  57.6660  57.7502  57.8741  57.9016  58.0047  58.1085

          k = 0.2812 0.2345 0.0768 ( 49754 PWs)   bands (ev):

   -47.3951 -47.3945 -47.3734 -47.3667 -47.2747 -47.2591 -47.2214 -47.2203
   -47.2028 -47.2016 -25.0898 -25.0719 -25.0004 -24.9378 -24.9164 -24.8946
   -24.8742 -24.8710 -24.8441 -24.8219 -24.8127 -24.8078 -24.7803 -24.7784
   -24.7720 -24.7361 -24.7096 -24.7039 -24.5680 -24.5227 -24.5026 -24.5012
   -24.4806 -24.4695 -24.4643 -24.4562 -24.4234 -24.4216 -24.3947 -24.3929
    -9.9185  -9.8306  -9.5439  -9.3590  -9.2034  -9.1668  -9.0863  -9.0641
    -8.9997  -8.9912  -8.9330  -8.9017  -8.8774  -8.7842  -8.7387  -8.7041
    -8.6060  -8.5958  -8.5417  -8.5271  -8.4721  -8.4416  -8.4154  -8.3409
     2.4588   2.5398   2.6066   2.6441   2.6762   2.7691   2.8398   3.0137
     3.0409   3.0979   3.1081   3.2550   3.2696   3.2888   3.3549   3.3688
     3.3799   3.4707   3.5578   3.6384   3.6717   3.7437   3.7975   3.9142
     3.9907   4.0674   4.0861   4.1263   4.1852   4.2969   4.3274   4.3819
     4.4278   4.4427   4.5429   4.5910   4.7052   4.7523   4.8130   4.9124
     4.9668   4.9807   5.0224   5.0784   5.1531   5.1629   5.2210   5.2655
     5.3142   5.3545   5.4214   5.4286   5.5309   5.5680   5.6739   5.7129
     5.7891   5.8132   5.8244   5.8842   5.9280   5.9755   6.0102   6.1140
     6.1728   6.2095   6.2861   6.3825   6.4177   6.4871   6.5935   6.6238
     8.5221   8.6799   8.6970   8.8393   8.9100   9.0272  10.3983  10.4380
    10.5010  10.6090  10.6386  10.7002  10.7166  10.7714  10.8067  10.8425
    10.8646  10.9069  11.2704  11.2864  11.3531  11.4183  11.4711  11.5372
    11.7148  11.7285  11.7714  11.8195  11.8684  11.9257  12.6879  12.7552
    12.8647  12.9052  13.0069  13.0108  13.1140  13.1684  13.2058  13.2461
    13.3311  13.3636  13.3681  13.4275  13.4898  13.4949  13.5262  13.5879
    13.6039  13.7229  14.7776  15.1658  15.8793  15.9576  16.0155  16.2790
    16.5360  16.5918  16.6735  16.8138  17.0207  17.2850  17.3417  17.4947
    17.7079  17.8314  18.4972  18.6516  18.7612  18.9846  19.0970  19.2060
    19.2550  19.3385  19.6016  19.6777  19.7663  19.8514  20.0017  20.0426
    20.1251  20.1770  20.2886  20.3655  20.4652  20.5700  20.6165  20.8117
    20.8399  20.9640  21.3326  21.4076  21.6105  21.6807  21.8402  21.8798
    21.9190  22.0498  22.1180  22.1903  22.2214  22.3635  22.3947  22.4213
    22.4864  22.6177  22.6874  22.7526  22.8319  22.9236  22.9816  23.0174
    23.1283  23.2472  23.3322  23.3704  23.5215  23.5651  23.6243  23.7353
    23.8289  23.9544  24.0185  24.0328  24.1566  24.2271  24.3172  24.5610
    24.7001  24.8513  24.8779  25.0717  25.3175  25.4415  25.5045  25.6532
    25.8072  25.9811  26.4050  26.4251  26.5324  26.7979  27.0624  27.2174
    27.2594  27.3546  27.7597  27.9411  28.0209  28.1794  28.2367  28.4802
    28.6065  28.7990  29.0902  29.2059  29.5551  29.8336  29.8746  30.1039
    30.2928  30.3677  30.4898  30.6910  30.8076  30.9646  30.9959  31.3530
    31.4109  31.6876  31.8573  31.9631  32.0991  32.1995  32.3733  32.4056
    32.5010  32.6809  32.7753  32.8992  33.0748  33.1900  33.3365  33.4191
    33.5887  33.6524  33.7454  33.8631  33.9521  34.0119  34.0905  34.1626
    34.3145  34.4407  34.5248  34.5667  34.7549  34.8218  35.0391  35.0918
    35.3367  35.3527  35.5379  35.6909  35.8925  35.9176  36.0555  36.1574
    36.2438  36.4727  36.5193  36.6230  36.6755  36.7860  36.8596  36.9206
    37.1068  37.1746  37.1895  37.4549  37.5172  37.5841  37.6790  37.7574
    37.8052  37.9069  37.9858  38.0661  38.1747  38.2519  38.3331  38.4484
    38.5237  38.6432  38.7260  38.7666  38.8482  38.8794  39.0189  39.0811
    39.1551  39.2745  39.2893  39.3674  39.4439  39.5253  39.5825  39.6526
    39.7732  39.8383  39.9798  40.1198  40.1249  40.2852  40.3624  40.3960
    40.5617  40.5944  40.6984  40.8383  40.9287  41.0188  41.1295  41.2204
    41.2970  41.3769  41.4679  41.5439  41.6530  41.7832  41.8016  41.8613
    41.9612  42.0063  42.0279  42.0898  42.2146  42.2600  42.3385  42.3911
    42.4999  42.6058  42.6812  42.7604  42.8703  42.9992  43.0461  43.2036
    43.2351  43.2960  43.3943  43.4805  43.6259  43.6865  43.8576  43.9165
    44.0116  44.0777  44.1801  44.2360  44.3525  44.4993  44.6003  44.7095
    44.7754  44.7945  44.9273  45.0085  45.1366  45.2108  45.2920  45.3630
    45.3876  45.5610  45.6067  45.7955  45.8942  45.9782  46.1118  46.1742
    46.2192  46.3253  46.3807  46.5940  46.7511  46.8249  46.9983  47.0112
    47.1311  47.2199  47.2725  47.3838  47.6145  47.6839  47.7721  47.8258
    47.9038  48.0629  48.1406  48.2353  48.2743  48.3578  48.4727  48.5272
    48.5950  48.7698  48.8263  48.9456  48.9866  49.0773  49.0968  49.2018
    49.2525  49.3244  49.3277  49.4386  49.5491  49.6043  49.6942  49.7658
    49.9376  49.9690  50.0365  50.0951  50.2173  50.3529  50.3783  50.4640
    50.5560  50.6314  50.7493  50.8203  50.8336  50.9084  50.9989  51.1718
    51.2737  51.3217  51.3832  51.4916  51.5064  51.5829  51.7075  51.8065
    51.8725  51.9463  52.0432  52.0950  52.1274  52.3507  52.3576  52.3774
    52.4427  52.4817  52.5493  52.6741  52.7360  52.7681  52.8288  52.9572
    53.0171  53.0247  53.0594  53.1713  53.2310  53.2790  53.3598  53.4508
    53.4822  53.5224  53.6688  53.7337  53.8088  53.8658  53.9309  54.0202
    54.1078  54.2160  54.3057  54.3800  54.5321  54.6237  54.7286  54.7981
    54.8500  54.8866  54.9925  55.0528  55.1340  55.1837  55.2910  55.3568
    55.4579  55.6382  55.6569  55.8180  55.9205  55.9656  55.9885  56.0661
    56.2254  56.3980  56.4382  56.4898  56.5225  56.7163  56.7693  56.8784
    56.9515  57.0949  57.1320  57.2023  57.2771  57.3604  57.4413  57.5301
    57.5599  57.6426  57.7277  57.9654  58.0388  58.0655  58.1814  58.2716

          k = 0.2812 0.2345 0.2815 ( 49745 PWs)   bands (ev):

   -47.3951 -47.3945 -47.3734 -47.3667 -47.2747 -47.2591 -47.2214 -47.2203
   -47.2028 -47.2016 -25.0898 -25.0718 -25.0004 -24.9378 -24.9164 -24.8945
   -24.8742 -24.8709 -24.8442 -24.8219 -24.8127 -24.8078 -24.7804 -24.7783
   -24.7721 -24.7360 -24.7097 -24.7039 -24.5680 -24.5227 -24.5026 -24.5012
   -24.4806 -24.4695 -24.4644 -24.4561 -24.4235 -24.4215 -24.3945 -24.3931
    -9.9084  -9.8473  -9.5282  -9.3656  -9.2131  -9.1607  -9.0906  -9.0572
    -9.0085  -8.9832  -8.9376  -8.8992  -8.8776  -8.7947  -8.7264  -8.6942
    -8.6208  -8.5865  -8.5448  -8.5330  -8.4678  -8.4447  -8.4100  -8.3430
     2.4968   2.5150   2.5917   2.6056   2.7014   2.7788   2.8194   2.9882
     3.0770   3.1091   3.1452   3.2419   3.2935   3.2985   3.3148   3.3786
     3.4342   3.4563   3.5248   3.6475   3.6834   3.7142   3.8177   3.8654
     3.9583   4.0542   4.0769   4.1131   4.2083   4.2719   4.2942   4.3223
     4.4276   4.5546   4.6115   4.6310   4.7089   4.7215   4.7922   4.9122
     4.9640   5.0305   5.0533   5.1142   5.1364   5.1858   5.1924   5.2678
     5.2904   5.3395   5.3993   5.4498   5.5098   5.6058   5.6365   5.6998
     5.7720   5.8059   5.8236   5.8799   5.8937   5.9515   6.0429   6.0907
     6.1586   6.1898   6.3079   6.3822   6.4425   6.5350   6.5746   6.6426
     8.5624   8.5875   8.7495   8.8150   8.9463   9.0099  10.3964  10.4598
    10.4732  10.5943  10.6742  10.7117  10.7433  10.7459  10.7736  10.8416
    10.8685  10.9094  11.2500  11.3274  11.3321  11.4319  11.4552  11.5406
    11.7167  11.7273  11.7677  11.8194  11.8877  11.9095  12.7116  12.7443
    12.8597  12.9043  12.9929  13.0326  13.0883  13.1586  13.1889  13.2554
    13.3276  13.3436  13.3950  13.4426  13.4679  13.4880  13.5253  13.5814
    13.6821  13.7091  14.7384  15.2505  15.6672  15.8224  16.3801  16.4653
    16.5686  16.6100  16.7060  16.7843  16.8312  16.9728  17.0264  17.7162
    18.0094  18.1786  18.4176  18.5109  18.5882  18.8802  18.9934  19.2206
    19.3501  19.4540  19.5703  19.7359  19.8273  19.9208  19.9546  20.0298
    20.0370  20.2202  20.2549  20.3423  20.4516  20.5845  20.6429  20.7223
    20.8920  21.0221  21.2009  21.5484  21.6127  21.6831  21.7976  21.8527
    21.9141  22.0614  22.1187  22.2123  22.2238  22.2976  22.3605  22.4071
    22.4875  22.6315  22.6690  22.7633  22.8189  22.9307  23.0821  23.1475
    23.2013  23.2617  23.3015  23.3821  23.4791  23.5341  23.5800  23.6185
    23.6497  23.8063  24.0921  24.1396  24.2768  24.3951  24.4702  24.6129
    24.6928  24.7213  24.8533  24.9951  25.1893  25.3186  25.3305  25.7510
    25.9566  26.0286  26.2518  26.6004  26.6812  26.8608  27.0254  27.0490
    27.3452  27.5114  27.6719  27.8222  28.0448  28.1964  28.3963  28.5540
    28.6869  28.8718  28.9807  29.0973  29.3014  29.4153  29.6348  29.9547
    30.2080  30.5175  30.7345  30.7983  31.1183  31.2029  31.4237  31.4594
    31.6225  31.7230  31.7406  31.7977  31.9037  32.0823  32.1624  32.2858
    32.4785  32.6449  32.7610  33.0213  33.0616  33.2230  33.2952  33.4053
    33.5531  33.6391  33.7329  33.8890  33.9811  34.0346  34.1583  34.2879
    34.3286  34.5331  34.6052  34.6840  34.7524  34.8487  34.9246  35.0261
    35.1959  35.2311  35.3463  35.4332  35.5249  35.7492  35.8229  36.1489
    36.3058  36.4785  36.6719  36.7559  36.8734  37.0074  37.0483  37.1177
    37.1991  37.2965  37.3450  37.4137  37.4579  37.5365  37.6682  37.7786
    37.8322  37.9842  38.0184  38.1552  38.2324  38.2636  38.3590  38.4254
    38.5112  38.5451  38.6661  38.7015  38.8469  38.9450  39.0082  39.0167
    39.1189  39.1947  39.2939  39.3575  39.4175  39.4858  39.6211  39.6757
    39.8175  39.9072  39.9818  40.0750  40.1597  40.2278  40.3476  40.3590
    40.5284  40.6415  40.7952  40.8722  40.9068  41.0873  41.1448  41.1954
    41.2260  41.2581  41.3994  41.6187  41.6879  41.7562  41.8150  41.8459
    41.8741  41.9232  42.0316  42.0817  42.1692  42.2284  42.3132  42.5097
    42.5522  42.5992  42.6778  42.7626  42.8418  42.9368  43.0070  43.0281
    43.1467  43.2149  43.3175  43.3517  43.4823  43.5556  43.6729  43.8035
    43.9368  43.9948  44.1695  44.2648  44.3294  44.4297  44.6312  44.6756
    44.8468  44.9179  45.0685  45.1059  45.2115  45.2734  45.4262  45.6030
    45.7491  45.8163  45.9102  45.9414  46.0196  46.1292  46.1644  46.2911
    46.4128  46.4804  46.6241  46.6405  46.7985  46.9101  46.9557  47.0408
    47.1621  47.2709  47.3285  47.4220  47.5087  47.5695  47.6501  47.6983
    47.7906  47.8574  47.9367  48.0043  48.1051  48.2627  48.3237  48.3755
    48.4205  48.6239  48.7083  48.7915  48.9090  48.9697  49.0772  49.1193
    49.2089  49.3109  49.3836  49.4754  49.5374  49.6160  49.6797  49.7540
    49.8438  49.9443  50.0302  50.0420  50.1626  50.2208  50.3005  50.4425
    50.5128  50.6089  50.6725  50.7825  50.8764  50.9223  50.9698  51.0880
    51.2108  51.3161  51.3308  51.4989  51.5962  51.6111  51.7585  51.8716
    51.9681  52.0232  52.0919  52.2129  52.3034  52.3591  52.4949  52.5792
    52.6368  52.6572  52.7518  52.7603  52.8084  52.8833  52.9438  52.9851
    53.0394  53.1165  53.1782  53.2322  53.2774  53.3412  53.3629  53.5233
    53.5315  53.6841  53.7444  53.7827  53.8285  53.9313  54.0126  54.0915
    54.1580  54.2019  54.3185  54.3530  54.4442  54.5363  54.6208  54.7154
    54.7649  54.7893  54.8751  54.9814  55.0362  55.2694  55.3014  55.3666
    55.4083  55.4883  55.5593  55.7053  55.8343  55.9240  56.0217  56.1327
    56.1688  56.2360  56.2984  56.3327  56.5563  56.6439  56.7079  56.7518
    56.9008  56.9785  57.1027  57.1962  57.2853  57.3655  57.4409  57.5659
    57.5837  57.6348  57.8290  57.8736  57.9771  58.0364  58.1549  58.3010

          k = 0.2812 0.5232 0.0768 ( 49771 PWs)   bands (ev):

   -47.3920 -47.3914 -47.3724 -47.3681 -47.2721 -47.2626 -47.2216 -47.2204
   -47.2051 -47.2040 -25.0419 -25.0080 -24.9647 -24.9621 -24.9079 -24.8865
   -24.8675 -24.8498 -24.8256 -24.8233 -24.8123 -24.8057 -24.7993 -24.7893
   -24.7778 -24.7437 -24.7077 -24.7045 -24.5595 -24.5435 -24.5420 -24.5311
   -24.4800 -24.4735 -24.4653 -24.4624 -24.4446 -24.4365 -24.4100 -24.4076
    -9.7217  -9.6816  -9.3992  -9.3760  -9.3131  -9.2850  -9.0945  -9.0782
    -9.0594  -9.0491  -8.9267  -8.9120  -8.8222  -8.7935  -8.7628  -8.7362
    -8.6835  -8.6252  -8.5704  -8.5311  -8.4741  -8.4551  -8.4169  -8.3352
     2.7587   2.8058   2.8934   2.9337   2.9543   2.9922   3.0114   3.0650
     3.0860   3.1575   3.2275   3.2470   3.2809   3.3616   3.4035   3.4690
     3.5381   3.5402   3.6087   3.6268   3.6924   3.7662   3.8626   3.8871
     3.9078   3.9519   4.0407   4.0699   4.1067   4.1468   4.2010   4.2714
     4.3233   4.3948   4.4541   4.4690   4.5821   4.6542   4.7205   4.7997
     4.8260   4.9673   5.0045   5.0627   5.0934   5.1327   5.1394   5.2054
     5.2291   5.2723   5.2992   5.3258   5.3569   5.4093   5.4442   5.5421
     5.6018   5.7759   5.8019   5.8572   5.9543   5.9873   6.0440   6.0814
     6.0970   6.1447   6.1950   6.2458   6.2604   6.3694   6.4909   6.5473
     8.7464   8.8386   8.9309   8.9555   9.0645   9.0845  10.4279  10.4919
    10.5420  10.5960  10.6614  10.6822  10.7344  10.7596  10.8202  10.8683
    10.8873  10.8970  11.2915  11.3914  11.4318  11.4774  11.5219  11.5501
    11.6417  11.6914  11.7761  11.7953  11.8155  11.8705  12.6869  12.7662
    12.7908  12.8176  12.8903  12.9546  13.0432  13.1152  13.1389  13.1489
    13.1993  13.2791  13.2974  13.3255  13.3871  13.4076  13.4572  13.4598
    13.5430  13.5798  15.6540  15.9714  16.0278  16.2061  16.3783  16.6243
    16.8078  16.8834  17.1573  17.3973  17.4950  17.6100  17.7708  17.7888
    17.9049  18.0883  18.1825  18.3850  18.4264  18.6324  18.7347  18.8470
    18.9349  18.9986  19.4381  19.5699  19.7027  19.8393  19.8863  19.9070
    20.0126  20.1121  20.2361  20.3360  20.4563  20.5018  20.5440  20.8093
    20.9768  21.1395  21.2674  21.4159  21.4501  21.7054  21.7661  21.9018
    21.9148  22.0481  22.0817  22.0997  22.1537  22.1875  22.2982  22.3179
    22.3531  22.4179  22.6743  22.7281  22.8840  22.9360  22.9786  23.1473
    23.2195  23.2308  23.4560  23.4821  23.5751  23.6861  23.7323  23.8383
    23.9062  23.9736  24.0932  24.1573  24.2404  24.3439  24.3999  24.4881
    24.6229  24.8688  24.9521  24.9810  25.1911  25.2956  25.4031  25.5700
    25.7416  25.9410  25.9908  26.1113  26.2832  26.5723  26.6483  26.8233
    27.3913  27.6290  27.9626  28.1745  28.2219  28.3451  28.4279  28.7786
    28.9631  29.0860  29.2342  29.3087  29.3964  29.4703  29.5763  29.6594
    29.8099  29.8454  30.0887  30.1201  30.1743  30.5864  30.7988  30.9454
    31.1735  31.4488  31.5856  31.6576  31.8391  31.9960  32.2084  32.3468
    32.4726  32.6015  32.7919  32.8373  32.9969  33.2313  33.3657  33.4599
    33.5129  33.6501  33.8532  33.9547  34.0618  34.1127  34.2011  34.2593
    34.3854  34.5923  34.7032  34.8335  34.9519  35.1198  35.2660  35.3986
    35.4851  35.6916  35.8429  35.9425  36.1883  36.3002  36.4998  36.5549
    36.5906  36.7586  36.7954  36.8721  37.0030  37.0561  37.1186  37.2602
    37.3611  37.4293  37.4761  37.5853  37.6703  37.7477  37.7858  37.8367
    37.8963  38.0676  38.2622  38.2779  38.3788  38.4133  38.4953  38.5495
    38.6705  38.7279  38.8013  38.8268  38.8466  38.9465  38.9969  39.0751
    39.1612  39.2149  39.2564  39.4515  39.5338  39.6005  39.6569  39.7871
    39.8470  39.9205  40.0284  40.0657  40.1833  40.2413  40.3164  40.3719
[...]
    51.3562  51.4922  51.5094  51.6128  51.7643  51.8136  51.8438  51.9123
    52.0477  52.1238  52.1490  52.2165  52.2873  52.3437  52.4128  52.5540
    52.5864  52.6651  52.7452  52.8489  52.9048  52.9699  53.0311  53.1198
    53.2469  53.3121  53.4265  53.4523  53.5195  53.5912  53.6039  53.7022
    53.7789  53.8170  53.9045  53.9982  54.0838  54.1693  54.1947  54.2430
    54.4125  54.4588  54.5544  54.5916  54.6555  54.7161  54.8995  54.9750
    54.9866  55.1017  55.1811  55.3335  55.3692  55.4801  55.5638  55.6121
    55.7119  55.8652  55.9574  56.0046  56.0543  56.1404  56.2928  56.3808
    56.4236  56.5778  56.6123  56.6744  56.6865  56.7582  56.9021  56.9550
    57.0969  57.1713  57.2420  57.3421  57.3622  57.4656  57.5622  57.7557
    57.7698  57.8588  57.9539  58.0065  58.0594  58.0889  58.1816  58.2537

          k = 0.7812 1.1006 0.2815 ( 49742 PWs)   bands (ev):

   -47.2539 -47.2533 -47.2121 -47.2099 -46.4773 -46.4556 -46.3550 -46.3537
   -46.3310 -46.3298 -24.8245 -24.8131 -24.7496 -24.7358 -24.6891 -24.6872
   -24.6580 -24.6512 -24.6367 -24.6343 -24.5669 -24.5534 -24.5475 -24.5174
   -24.5143 -24.4125 -24.3768 -24.3735 -23.7432 -23.6740 -23.5772 -23.5742
   -23.5020 -23.4996 -23.4845 -23.4304 -23.3607 -23.3602 -23.2781 -23.2777
    -9.7260  -9.6434  -9.3913  -9.3359  -9.2732  -9.1938  -9.0847  -9.0389
    -8.9989  -8.9854  -8.8924  -8.8700  -8.8152  -8.7595  -8.7478  -8.7067
    -8.6462  -8.6068  -8.5462  -8.5011  -8.4585  -8.4452  -8.3872  -8.3170
     2.8520   2.9260   3.0170   3.1100   3.1625   3.1981   3.2142   3.2690
     3.3173   3.3620   3.3954   3.4302   3.4912   3.5594   3.5988   3.6359
     3.6448   3.7507   3.7694   3.8427   3.9080   3.9454   3.9541   4.0186
     4.0517   4.1083   4.1527   4.2138   4.2314   4.2929   4.3325   4.3807
     4.4388   4.5111   4.5457   4.6564   4.6876   4.7526   4.7920   4.8828
     4.9276   5.0115   5.0611   5.0852   5.1494   5.2395   5.2450   5.3248
     5.3522   5.3946   5.4291   5.4613   5.5360   5.5485   5.5540   5.6332
     5.7059   5.7812   5.8719   5.9342   5.9976   6.0066   6.0611   6.1416
     6.1466   6.2238   6.2538   6.3169   6.3612   6.4589   6.4802   6.5504
    10.2985  10.3455  10.4908  10.5625  10.6251  10.6528  10.7580  10.7961
    10.8170  10.8901  10.9128  11.0026  11.6559  11.7778  11.8186  12.0107
    12.0541  12.0668  12.2062  12.2496  12.3106  12.3533  12.4011  12.4176
    12.6998  12.7422  12.8123  12.8788  12.9077  12.9887  13.0264  13.0387
    13.1417  13.2031  13.2855  13.3101  13.4321  13.5219  13.5960  13.6288
    13.6746  13.7605  13.7842  13.8366  13.8434  13.8692  13.9050  13.9231
    14.0125  14.0489  15.7192  15.7778  15.9917  16.4555  16.6101  16.7753
    16.7958  16.9890  17.1125  17.4957  17.5319  17.6928  17.7675  17.9472
    18.0061  18.0519  18.2226  18.4035  18.5652  18.6564  18.9378  19.0478
    19.1294  19.2959  19.5836  19.6624  19.7781  19.8461  19.9254  20.0063
    20.1432  20.3001  20.3579  20.4326  20.5698  20.6083  20.6596  20.8666
    21.1271  21.2462  21.3061  21.3825  21.7155  21.7488  21.8697  21.9143
    22.0211  22.0713  22.1693  22.2247  22.3063  22.3438  22.4034  22.4412
    22.5125  22.6327  22.6798  22.8043  22.9018  22.9961  23.0902  23.1707
    23.3174  23.4016  23.5352  23.5851  23.7151  23.8457  23.9182  23.9611
    24.1067  24.1462  24.1940  24.2937  24.3843  24.4427  24.5162  24.6590
    24.7005  24.8665  24.9574  25.1562  25.2928  25.4309  25.6509  25.7596
    25.8940  25.9622  26.2488  26.2865  26.4593  26.9588  26.9999  27.0816
    27.4332  27.6274  27.8752  28.2083  28.3820  28.4770  28.6456  28.7970
    29.0943  29.1677  29.2723  29.4444  29.5517  29.6825  29.9506  30.0175
    30.0627  30.2487  30.3079  30.4441  30.7081  30.8448  30.9069  31.0621
    31.3902  31.5043  31.7159  31.8437  31.9972  32.1245  32.2408  32.4070
    32.4963  32.7684  32.8553  33.1861  33.2369  33.3314  33.4255  33.6226
    33.6881  33.7117  33.8933  33.9340  33.9926  34.1875  34.3176  34.4414
    34.5378  34.6588  34.9144  34.9479  35.1142  35.2258  35.3064  35.4090
    35.7060  35.8407  35.9509  36.1085  36.2990  36.3557  36.4817  36.5506
    36.7232  36.8050  36.8217  36.8654  36.9390  37.1529  37.2119  37.3386
    37.4159  37.4930  37.5911  37.6764  37.7905  37.8385  37.8761  37.9731
    38.0758  38.1782  38.2020  38.2872  38.3366  38.4976  38.5424  38.5959
    38.6822  38.7221  38.8047  38.9364  38.9738  39.0731  39.1282  39.2560
    39.2605  39.3691  39.4707  39.5593  39.6658  39.7050  39.8126  39.8922
    39.9597  40.1110  40.1871  40.2488  40.3905  40.4592  40.5265  40.5482
    40.6377  40.7239  40.7902  40.8834  41.0922  41.1089  41.2099  41.2623
    41.3283  41.3518  41.5096  41.5898  41.6338  41.7069  41.7938  41.8902
    41.9677  42.0074  42.0573  42.1738  42.2609  42.3785  42.4611  42.5150
    42.6121  42.6678  42.7973  42.8991  42.9795  43.0301  43.1925  43.2058
    43.2749  43.3651  43.4925  43.6253  43.7263  43.7951  43.8742  43.9432
    44.0697  44.1550  44.1778  44.2266  44.3339  44.4104  44.4608  44.4844
    44.6203  44.6832  44.7752  44.8065  44.8930  44.9720  45.0487  45.0885
    45.1987  45.2546  45.2960  45.4198  45.6008  45.6238  45.9215  46.0528
    46.1484  46.1744  46.2487  46.3147  46.3679  46.6501  46.8148  46.9297
    47.0781  47.1638  47.4871  47.6934  47.8317  47.9901  48.0366  48.2611
    48.3076  48.4873  48.5117  48.6534  48.7117  48.8190  48.9720  49.0219
    49.0948  49.1406  49.1463  49.2135  49.2625  49.3076  49.4703  49.5255
    49.5732  49.6539  49.7213  49.7762  49.8096  49.8613  49.9136  50.0288
    50.1085  50.1773  50.2089  50.2643  50.3097  50.4542  50.5324  50.5636
    50.6891  50.7202  50.7762  50.8356  50.9424  51.0109  51.1304  51.1482
    51.1958  51.3082  51.5180  51.5699  51.7184  51.7839  51.8604  51.9362
    52.0172  52.1339  52.1734  52.2212  52.3230  52.3776  52.4995  52.5397
    52.6297  52.6834  52.7527  52.7881  52.8619  52.9536  52.9818  53.0262
    53.1310  53.2022  53.3298  53.3815  53.4481  53.5389  53.6168  53.6368
    53.8622  53.8992  53.9258  53.9498  54.0625  54.1270  54.2054  54.2841
    54.4264  54.4423  54.4598  54.5722  54.6652  54.8072  54.8898  54.9614
    55.0982  55.1527  55.2117  55.3710  55.4318  55.4671  55.5626  55.6512
    55.7490  55.9150  55.9443  56.0099  56.0371  56.1367  56.2034  56.2338
    56.4143  56.5184  56.5954  56.6902  56.7426  56.8731  56.9427  56.9739
    57.0190  57.1753  57.2090  57.2876  57.3845  57.4431  57.4749  57.6991
    57.7641  57.8393  57.8803  57.9635  58.0381  58.1618  58.3298  58.3401

          k = 0.7812 1.3892 0.0768 ( 49729 PWs)   bands (ev):

   -47.2528 -47.2522 -47.2120 -47.2099 -46.4734 -46.4601 -46.3508 -46.3496
   -46.3355 -46.3343 -24.8458 -24.8421 -24.7442 -24.7271 -24.7002 -24.6945
   -24.6562 -24.6526 -24.6381 -24.6358 -24.5592 -24.5559 -24.5260 -24.4911
   -24.4883 -24.4395 -24.3984 -24.3947 -23.7297 -23.6868 -23.5321 -23.5294
   -23.5161 -23.5134 -23.4753 -23.4432 -23.3475 -23.3470 -23.2947 -23.2943
    -9.8328  -9.7589  -9.4492  -9.3229  -9.1868  -9.1441  -9.0429  -9.0220
    -9.0080  -8.9875  -8.8964  -8.8600  -8.8367  -8.7672  -8.7341  -8.6900
    -8.5910  -8.5848  -8.5221  -8.4908  -8.4541  -8.4042  -8.3798  -8.3689
     2.6698   2.7876   2.9387   2.9599   3.0386   3.1161   3.1491   3.2163
     3.2339   3.2667   3.3110   3.3462   3.4028   3.5145   3.5429   3.5855
     3.6033   3.6448   3.6995   3.7876   3.8117   3.8367   3.9259   4.0212
     4.0986   4.1359   4.2137   4.2672   4.2904   4.3756   4.4103   4.4620
     4.5440   4.6185   4.6542   4.6643   4.7126   4.8576   4.9513   5.0308
     5.0660   5.0787   5.1071   5.1407   5.2173   5.2745   5.3163   5.3299
     5.4147   5.4529   5.5033   5.5211   5.5591   5.6111   5.6511   5.7467
     5.7794   5.8209   5.9135   5.9431   5.9998   6.0201   6.0327   6.1284
     6.1553   6.2553   6.2928   6.3330   6.3670   6.5304   6.5644   6.6400
    10.1924  10.2523  10.4447  10.4930  10.5248  10.5437  10.6733  10.7242
    10.7660  10.8596  10.9245  11.0362  11.8251  11.8996  11.9304  11.9728
    12.0057  12.0695  12.1790  12.2091  12.2269  12.2779  12.3932  12.4175
    12.6264  12.7217  12.7899  12.9189  12.9629  13.0341  13.0900  13.1242
    13.1586  13.2240  13.2802  13.3736  13.4010  13.4663  13.6025  13.7071
    13.7469  13.7516  13.8347  13.8685  13.9548  13.9685  13.9803  14.0055
    14.0309  14.0668  15.0182  15.5893  15.9756  16.1145  16.3423  16.4383
    16.6814  16.8308  16.9730  17.0630  17.1352  17.3663  17.5138  17.6736
    17.9590  18.0696  18.4044  18.7305  18.7823  18.9659  19.0552  19.1615
    19.3218  19.4324  19.5217  19.7424  19.9191  19.9901  20.0098  20.1180
    20.2741  20.2975  20.3457  20.4921  20.5375  20.6470  20.7309  20.8751
    20.9769  21.1654  21.4017  21.5662  21.7362  21.7472  21.8619  21.9752
    22.0234  22.1481  22.2053  22.2557  22.2988  22.3531  22.4394  22.4970
    22.5310  22.6250  22.8145  22.8625  22.9541  23.0189  23.1571  23.2115
    23.2536  23.3638  23.4124  23.5495  23.6184  23.7619  23.7798  23.8287
    23.9053  24.0413  24.1678  24.2477  24.3425  24.4331  24.5393  24.6848
    24.8902  25.0472  25.0566  25.1686  25.1991  25.5786  25.6157  25.8366
    25.9550  26.1135  26.4004  26.5745  26.8272  27.0636  27.2269  27.3326
    27.4739  27.6021  27.7216  27.9585  28.2375  28.3502  28.4272  28.7989
    28.9033  29.0460  29.3592  29.4498  29.5717  29.5785  29.8514  30.1184
    30.2637  30.5258  30.5973  30.7496  30.9516  30.9785  31.2392  31.2949
    31.5745  31.5898  31.7523  31.9737  32.1077  32.2130  32.4059  32.4366
    32.7373  33.0362  33.1868  33.1956  33.2321  33.3415  33.3907  33.6031
    33.7647  33.8983  33.8999  33.9375  34.0125  34.2279  34.2787  34.3756
    34.5414  34.5900  34.6784  34.7877  34.8755  34.9343  35.0198  35.1322
    35.3040  35.6148  35.7765  35.8770  35.9667  36.1047  36.2084  36.3194
    36.4058  36.5215  36.6253  36.7158  36.8410  36.9961  37.0717  37.1608
    37.2408  37.4137  37.4717  37.5573  37.6491  37.6908  37.7254  37.8208
    37.9718  38.0988  38.1419  38.2404  38.3011  38.4267  38.4874  38.5139
    38.6660  38.7100  38.7924  38.8901  38.9468  39.0866  39.1007  39.1431
    39.2879  39.3261  39.3858  39.4896  39.5830  39.6529  39.7212  39.8369
    39.9087  40.0933  40.1136  40.1383  40.3647  40.4092  40.4907  40.5234
    40.6448  40.7482  40.8767  41.0417  41.0733  41.2030  41.3054  41.4522
    41.4854  41.5864  41.6079  41.6713  41.7425  41.7871  41.8847  41.9788
    42.0198  42.1189  42.2055  42.2854  42.3270  42.4185  42.4832  42.5145
    42.6922  42.7509  42.8022  42.8754  42.9025  43.0309  43.1111  43.1930
    43.3393  43.4335  43.5172  43.6997  43.7312  43.8048  43.8153  43.8610
    44.0099  44.0559  44.1751  44.2109  44.2998  44.4397  44.5018  44.6096
    44.6775  44.7356  44.9342  45.0138  45.0621  45.1812  45.2924  45.3338
    45.4572  45.4907  45.6395  45.7180  45.7502  45.8720  46.0523  46.1553
    46.2888  46.3500  46.4650  46.5924  46.6906  46.7730  46.9711  47.2580
    47.3401  47.4624  47.5377  47.6549  47.8607  48.0108  48.0893  48.1030
    48.2429  48.2990  48.4090  48.4313  48.5519  48.6559  48.7329  48.7705
    48.8189  48.9420  49.0341  49.0562  49.1223  49.2974  49.3409  49.3562
    49.4289  49.4907  49.5581  49.6080  49.6749  49.7601  49.8303  49.8994
    49.9362  50.0023  50.1673  50.2062  50.3137  50.3364  50.4676  50.5748
    50.6053  50.6716  50.8165  50.9590  50.9629  51.1484  51.2360  51.2569
    51.3388  51.4376  51.5827  51.5925  51.7057  51.8829  51.9985  52.0434
    52.0998  52.2320  52.2728  52.3163  52.3944  52.4323  52.5146  52.5635
    52.6128  52.6591  52.6685  52.7369  52.8000  52.8425  52.9062  52.9854
    53.0884  53.1412  53.2047  53.2924  53.3198  53.4351  53.4618  53.5158
    53.6255  53.7304  53.8025  53.8305  53.9365  53.9877  54.0279  54.2029
    54.2152  54.2560  54.3349  54.4323  54.5410  54.6958  54.7664  54.8558
    55.0141  55.0803  55.1466  55.1888  55.2770  55.4362  55.5271  55.6389
    55.7383  55.8625  55.9405  55.9601  56.0894  56.1583  56.2435  56.3374
    56.3997  56.5161  56.6167  56.6479  56.7107  56.8512  56.9600  57.0319
    57.1197  57.1578  57.2394  57.2785  57.3845  57.4479  57.5033  57.5900
    57.7791  57.8336  57.9630  58.0779  58.2170  58.2481  58.3113  58.3426

          k = 0.7812 1.3892 0.2815 ( 49747 PWs)   bands (ev):

   -47.2528 -47.2522 -47.2120 -47.2099 -46.4734 -46.4601 -46.3508 -46.3496
   -46.3355 -46.3343 -24.8459 -24.8421 -24.7442 -24.7271 -24.7001 -24.6945
   -24.6562 -24.6527 -24.6381 -24.6359 -24.5592 -24.5558 -24.5260 -24.4911
   -24.4883 -24.4395 -24.3984 -24.3947 -23.7297 -23.6868 -23.5321 -23.5294
   -23.5161 -23.5134 -23.4753 -23.4432 -23.3475 -23.3469 -23.2947 -23.2943
    -9.8246  -9.7714  -9.4350  -9.3327  -9.1857  -9.1457  -9.0448  -9.0193
    -9.0073  -8.9877  -8.8904  -8.8614  -8.8497  -8.7713  -8.7271  -8.6856
    -8.5833  -8.5778  -8.5345  -8.5013  -8.4470  -8.3945  -8.3886  -8.3687
     2.6865   2.7680   2.9393   2.9455   3.0489   3.1122   3.1565   3.2110
     3.2362   3.2630   3.2851   3.3775   3.4417   3.5013   3.5409   3.5820
     3.6250   3.6509   3.6896   3.7431   3.7964   3.8347   3.9330   4.0332
     4.1001   4.1315   4.2145   4.2412   4.2902   4.3925   4.4444   4.4716
     4.5541   4.6365   4.6431   4.6643   4.7340   4.8470   4.9222   4.9667
     5.0129   5.0814   5.1142   5.1526   5.2190   5.3012   5.3347   5.3453
     5.4252   5.4492   5.5188   5.5340   5.5821   5.6181   5.6373   5.7200
     5.7891   5.8228   5.8858   5.9482   5.9868   6.0129   6.0321   6.1148
     6.1978   6.2487   6.2882   6.3419   6.3670   6.5079   6.5862   6.6319
    10.1944  10.2494  10.4616  10.4729  10.5115  10.5661  10.6695  10.7201
    10.7821  10.8272  10.9522  11.0283  11.8364  11.8767  11.9379  11.9783
    12.0030  12.0745  12.1840  12.2037  12.2269  12.2684  12.3993  12.4176
    12.6338  12.7116  12.7920  12.9189  12.9654  13.0410  13.0896  13.1305
    13.1484  13.2373  13.2529  13.3590  13.4148  13.4657  13.6088  13.6789
    13.7613  13.7714  13.8244  13.8711  13.9543  13.9650  13.9914  14.0258
    14.0338  14.0461  15.0985  15.4001  16.0298  16.2167  16.2623  16.4645
    16.7566  16.8454  16.9783  17.0294  17.1662  17.3391  17.4093  17.5499
    18.0640  18.1960  18.4297  18.6369  18.7841  19.0288  19.0702  19.1552
    19.2795  19.3428  19.5557  19.7779  19.8876  19.9857  20.0161  20.0969
    20.2842  20.3349  20.3862  20.4620  20.5127  20.6210  20.7287  20.8567
    21.0248  21.2804  21.3916  21.5179  21.6735  21.7336  21.8826  21.9719
    22.0241  22.1742  22.1792  22.2524  22.2817  22.3503  22.4404  22.4860
    22.5665  22.6565  22.7686  22.8286  22.9814  23.0539  23.1692  23.1794
    23.2267  23.3816  23.4026  23.5482  23.6559  23.7239  23.7716  23.8704
    23.9381  24.0530  24.1714  24.2591  24.3271  24.3753  24.5459  24.6914
    24.8968  24.9463  25.0303  25.1500  25.2323  25.5500  25.6648  25.9725
    25.9828  26.0941  26.4348  26.6366  26.8279  26.9700  27.1876  27.3720
    27.4378  27.6029  27.8078  27.9448  28.2472  28.4002  28.4062  28.7013
    28.7462  28.9930  29.2323  29.3239  29.5475  29.8548  29.8803  30.1942
    30.3842  30.4878  30.6564  30.7508  30.9148  30.9854  31.2688  31.3232
    31.4151  31.6574  31.8190  31.9992  32.1774  32.2197  32.4691  32.5099
    32.6660  32.8026  33.0469  33.1798  33.2196  33.3953  33.4394  33.5869
    33.7148  33.8084  33.8767  33.9769  34.0391  34.2751  34.3823  34.4212
    34.5811  34.6062  34.7055  34.7363  34.8540  34.9310  35.1426  35.2528
    35.3586  35.5453  35.6848  35.7644  35.8927  35.9276  36.1372  36.1788
    36.2754  36.4064  36.7237  36.7673  36.9492  37.0701  37.1574  37.2379
    37.2815  37.4169  37.5811  37.6329  37.6638  37.7141  37.7787  37.8840
    37.9437  38.0669  38.1717  38.2344  38.2692  38.4545  38.4991  38.5594
    38.6113  38.7291  38.7713  38.8527  38.8995  39.0664  39.1294  39.1707
    39.2037  39.2790  39.2902  39.4776  39.5840  39.5944  39.7634  39.8801
    39.9804  40.1072  40.1733  40.2570  40.3004  40.4321  40.6051  40.6323
    40.7319  40.8348  40.8618  40.9468  41.0173  41.1573  41.2874  41.3111
    41.4833  41.5227  41.6272  41.6628  41.7090  41.8057  41.8545  41.9295
    42.0090  42.0626  42.1239  42.1886  42.3256  42.3488  42.5124  42.5333
    42.7162  42.7771  42.8339  42.8884  42.9625  42.9967  43.0460  43.1661
    43.2693  43.3654  43.5648  43.6641  43.7378  43.8047  43.8573  44.0030
    44.0239  44.1523  44.2457  44.2671  44.3631  44.3999  44.4854  44.5809
    44.6771  44.7794  44.8704  44.9406  45.0502  45.1327  45.2879  45.3159
    45.3337  45.4616  45.4935  45.7502  45.7835  45.8893  46.0294  46.1390
    46.2294  46.5081  46.5301  46.6246  46.8566  46.8740  47.0329  47.2504
    47.3826  47.4807  47.5889  47.6075  47.8491  47.9707  48.0227  48.2097
    48.2206  48.2938  48.3727  48.4424  48.4972  48.6135  48.6374  48.7492
    48.8304  48.9324  49.0015  49.0729  49.1039  49.2473  49.2789  49.3779
    49.4313  49.5382  49.5927  49.6148  49.7128  49.7756  49.8852  49.9242
    50.0352  50.1333  50.2250  50.2313  50.2436  50.3255  50.4948  50.5889
    50.6191  50.6888  50.7193  50.9160  50.9968  51.0676  51.1806  51.2973
    51.3734  51.4564  51.5119  51.6722  51.7157  51.8137  52.0281  52.0857
    52.1146  52.1738  52.2162  52.3009  52.3522  52.4324  52.4995  52.5934
    52.6350  52.6414  52.6988  52.7253  52.8295  52.8817  52.9567  53.0224
    53.0776  53.1715  53.1940  53.2876  53.3337  53.3504  53.4182  53.4950
    53.6305  53.6662  53.7109  53.8507  53.9281  54.0018  54.0600  54.1120
    54.1631  54.2441  54.3530  54.3910  54.5981  54.6669  54.7437  54.9498
    54.9682  55.0995  55.2168  55.2475  55.3641  55.3884  55.4418  55.6209
    55.7079  55.7894  55.8046  55.9282  55.9951  56.1188  56.2274  56.2910
    56.4087  56.4837  56.5822  56.7135  56.8086  56.8737  56.9227  56.9725
    57.0202  57.1097  57.1949  57.2730  57.3664  57.4508  57.5141  57.6758
    57.7670  57.8605  57.9696  58.0186  58.0874  58.2138  58.3495  58.4614

     the Fermi energy is     9.6979 ev

     Writing output data file system.save
 
     init_run     :      3.03s CPU      4.41s WALL (       1 calls)
     electrons    :    338.59s CPU    340.63s WALL (       1 calls)

     Called by init_run:
     wfcinit      :      1.28s CPU      1.93s WALL (       1 calls)
     potinit      :      0.74s CPU      0.77s WALL (       1 calls)

     Called by electrons:
     c_bands      :    338.58s CPU    340.58s WALL (       1 calls)
     v_of_rho     :      0.03s CPU      0.03s WALL (       1 calls)

     Called by c_bands:
     init_us_2    :      0.11s CPU      0.13s WALL (       4 calls)
     cegterg      :    309.98s CPU    311.26s WALL (       2 calls)

     Called by sum_band:

     Called by *egterg:
     h_psi        :     60.77s CPU     61.12s WALL (      36 calls)
     g_psi        :      0.38s CPU      0.39s WALL (      32 calls)
     cdiaghg      :    147.24s CPU    147.43s WALL (      34 calls)

     Called by h_psi:
     h_psi:pot    :     56.76s CPU     57.05s WALL (      36 calls)
     h_psi:calbec :      8.65s CPU      8.68s WALL (      36 calls)
     vloc_psi     :     39.40s CPU     39.61s WALL (      36 calls)
     add_vuspsi   :      8.71s CPU      8.76s WALL (      36 calls)
     vhpsi        :      3.27s CPU      3.29s WALL (      36 calls)

     General routines
     calbec       :     10.74s CPU     10.79s WALL (      74 calls)
     fft          :      0.06s CPU      0.11s WALL (       5 calls)
     fftw         :     34.59s CPU     34.77s WALL (   24344 calls)
     davcio       :      0.00s CPU      0.49s WALL (       8 calls)
 
     Parallel routines
     fft_scatter  :      9.77s CPU      9.84s WALL (   24349 calls)

     Hubbard U routines
     vhpsi        :      3.27s CPU      3.29s WALL (      36 calls)
 
     PWSCF        :  7m32.78s CPU     7m56.01s WALL

 
   This run was terminated on:   7:30:43  28Jul2017            

=------------------------------------------------------------------------------=
   JOB DONE.
=------------------------------------------------------------------------------=
