
     Program PWSCF v.6.1 starts on 16Jul2017 at 20:57: 6 

     This program is part of the open-source Quantum ESPRESSO suite
     for quantum simulation of materials; please cite
         "P. Giannozzi et al., J. Phys.:Condens. Matter 21 395502 (2009);
          URL http://www.quantum-espresso.org", 
     in publications or presentations arising from this work. More details at
     http://www.quantum-espresso.org/quote

     Parallel version (MPI & OpenMP), running on     128 processor cores
     Number of MPI processes:               128
     Threads/MPI process:                     1
     K-points division:     npool     =      32
     R & G space division:  proc/nbgrp/npool/nimage =       4
     Waiting for input...
     Reading input from standard input
Warning: card &IONS ignored
Warning: card / ignored
     Message from routine read_cards :
     DEPRECATED: no units specified in CELL_PARAMETERS card

     Current dimensions of program PWSCF are:
     Max number of different atomic species (ntypx) = 10
     Max number of k-points (npk) =  40000
     Max angular momentum in pseudopotentials (lmaxx) =  3

     Atomic positions and unit cell read from directory:
     ./Out/system.save/
 
     Message from routine readpp:
     file ./Out/system.save/ti.fhi.UPF not found
     Message from routine readpp:
     file ./Out/system.save/08-o.lda.fhi.UPF not found
               file 08-o.lda.fhi.UPF: wavefunction(s)  3d renormalized
     Message from routine readpp:
     file ./Out/system.save/03-li.lda.fhi.UPF not found
               file 03-li.lda.fhi.UPF: wavefunction(s)  p f renormalized

     Subspace diagonalization in iterative solution of the eigenvalue problem:
     a serial algorithm will be used

 
     Parallelization info
     --------------------
     sticks:   dense  smooth     PW     G-vecs:    dense   smooth      PW
     Min         856     856    256                99620    99620   16190
     Max         857     857    257                99635    99635   16197
     Sum        3427    3427   1027               398521   398521   64781
 


     bravais-lattice index     =            0
     lattice parameter (alat)  =      11.1626  a.u.
     unit-cell volume          =    2950.5271 (a.u.)^3
     number of atoms/cell      =           42
     number of atomic types    =            3
     number of electrons       =       272.00
     number of Kohn-Sham states=          600
     kinetic-energy cutoff     =     100.0000  Ry
     charge density cutoff     =     400.0000  Ry
     Exchange-correlation      = SLA  PW   NOGX NOGC ( 1  4  0  0 0 0)

     celldm(1)=  11.162611  celldm(2)=   0.000000  celldm(3)=   0.000000
     celldm(4)=   0.000000  celldm(5)=   0.000000  celldm(6)=   0.000000

     crystal axes: (cart. coord. in units of alat)
               a(1) = (   1.000000   0.000000   0.000000 )  
               a(2) = (  -0.500000   0.866025   0.000000 )  
               a(3) = (   0.000000   0.000000   2.449467 )  

     reciprocal axes: (cart. coord. in units 2 pi/alat)
               b(1) = (  1.000000  0.577350  0.000000 )  
               b(2) = (  0.000000  1.154701  0.000000 )  
               b(3) = (  0.000000  0.000000  0.408252 )  


     PseudoPot. # 1 for Ti read from file:
     /global/project/projectdirs/m1409/mt/2.1-ile/true/s/ti.fhi.UPF
     MD5 check sum: c4bdc3654679b6e653b810d3fa8e26c3
     Pseudo is Norm-conserving, Zval = 12.0
     Generated using FHI98PP, converted with fhi2upf.x v.5.0.2
     Using radial grid of 1156 points,  2 beta functions with: 
                l(1) =   0
                l(2) =   2

     PseudoPot. # 2 for O  read from file:
     /global/project/projectdirs/m1409/mt/2.1-ile/true/s/08-o.lda.fhi.UPF
     MD5 check sum: c35f640a64c00feec7ce3b63cda5293b
     Pseudo is Norm-conserving, Zval =  6.0
     Generated by new atomic code, or converted to UPF format
     Using radial grid of  473 points,  3 beta functions with: 
                l(1) =   0
                l(2) =   1
                l(3) =   3

     PseudoPot. # 3 for Li read from file:
     /global/project/projectdirs/m1409/mt/2.1-ile/true/s/03-li.lda.fhi.UPF
     MD5 check sum: 58292b5c7d2b386e0f8e504c5a35e26e
     Pseudo is Norm-conserving + core correction, Zval =  1.0
     Generated by new atomic code, or converted to UPF format
     Using radial grid of  433 points,  3 beta functions with: 
                l(1) =   0
                l(2) =   1
                l(3) =   3

     atomic species   valence    mass     pseudopotential
        Ti            12.00    47.86700     Ti( 1.00)
        O              6.00    15.99940     O ( 1.00)
        Li             1.00     6.94100     Li( 1.00)

     No symmetry found


                                    s                        frac. trans.

      isym =  1     identity                                     

 cryst.   s( 1) = (     1          0          0      )
                  (     0          1          0      )
                  (     0          0          1      )

 cart.    s( 1) = (  1.0000000  0.0000000  0.0000000 )
                  (  0.0000000  1.0000000  0.0000000 )
                  (  0.0000000  0.0000000  1.0000000 )


   Cartesian axes

     site n.     atom                  positions (alat units)
         1           Ti  tau(   1) = (   0.5000000   0.0000000   0.0000000  )
         2           Ti  tau(   2) = (  -0.2500000   0.4330127   0.0000000  )
         3           Ti  tau(   3) = (   0.0037100   0.2907940   1.6225758  )
         4           Ti  tau(   4) = (   0.2499800   0.1486100   0.8268910  )
         5           Ti  tau(   5) = (   0.4962900   0.5752314   0.8268910  )
         6           Ti  tau(   6) = (   0.2500200   0.7174154   1.6225758  )
         7           Ti  tau(   7) = (   0.4977700   0.2899626   1.6330350  )
         8           Ti  tau(   8) = (   0.0022300   0.5760628   0.8164318  )
         9           Ti  tau(   9) = (   0.7665100   0.1348055   2.0552741  )
        10           Ti  tau(  10) = (  -0.2665100   0.7312199   0.3941927  )
        11           O   tau(  11) = (   0.2506750   0.4326230   0.6418338  )
        12           O   tau(  12) = (   0.2493250   0.4334024   1.8076330  )
        13           O   tau(  13) = (   0.5339550   0.5781499   0.2076903  )
        14           O   tau(  14) = (   0.2337150   0.7514935   2.2417764  )
        15           O   tau(  15) = (  -0.0339550   0.2878755   2.2417764  )
        16           O   tau(  16) = (   0.2662850   0.1145319   0.2076903  )
        17           O   tau(  17) = (  -0.0238550   0.5911230   0.1985783  )
        18           O   tau(  18) = (   0.5238550   0.2749024   2.2508885  )
        19           O   tau(  19) = (   0.4823600   0.5672120   1.4615233  )
        20           O   tau(  20) = (   0.2500400   0.7013420   0.9879434  )
        21           O   tau(  21) = (   0.0176400   0.2988134   0.9879434  )
        22           O   tau(  22) = (   0.2499600   0.1646834   1.4615233  )
        23           O   tau(  23) = (   0.0178750   0.5670301   1.4590004  )
        24           O   tau(  24) = (   0.4821250   0.2989953   0.9904664  )
        25           O   tau(  25) = (   0.7514500   0.1435004   1.4542239  )
        26           O   tau(  26) = (  -0.2514500   0.7225250   0.9952428  )
        27           O   tau(  27) = (   0.5300250   0.0167403   1.8209336  )
        28           O   tau(  28) = (  -0.2505150   0.4673853   0.6285332  )
        29           O   tau(  29) = (  -0.0300250   0.8492851   0.6285332  )
        30           O   tau(  30) = (   0.7505150   0.3986402   1.8209336  )
        31           O   tau(  31) = (   0.7342300   0.1534424   0.1688172  )
        32           O   tau(  32) = (  -0.2342300   0.7125830   2.2806495  )
        33           O   tau(  33) = (   0.9745900   0.0146705   1.8253181  )
        34           O   tau(  34) = (  -0.4745900   0.8513549   0.6241486  )
        35           Li  tau(  35) = (   0.2456950   0.4354982   2.1504848  )
        36           Li  tau(  36) = (   0.2543050   0.4305272   0.2989819  )
        37           Li  tau(  37) = (   0.7411000   0.1494760   0.5004261  )
        38           Li  tau(  38) = (  -0.2411000   0.7165494   1.9490407  )
        39           Li  tau(  39) = (   0.7511050   0.1436996   1.1084082  )
        40           Li  tau(  40) = (  -0.2511050   0.7223258   1.3410585  )
        41           Li  tau(  41) = (   0.2500000   0.4330127   1.2247334  )
        42           Li  tau(  42) = (   0.0000000   0.0000000   0.0000000  )

   Crystallographic axes

     site n.     atom                  positions (cryst. coord.)
         1           Ti  tau(   1) = (  0.5000000  0.0000000  0.0000000  )
         2           Ti  tau(   2) = (  0.0000000  0.5000000  0.0000000  )
         3           Ti  tau(   3) = (  0.1716000  0.3357800  0.6624200  )
         4           Ti  tau(   4) = (  0.3357800  0.1716000  0.3375800  )
         5           Ti  tau(   5) = (  0.8284000  0.6642200  0.3375800  )
         6           Ti  tau(   6) = (  0.6642200  0.8284000  0.6624200  )
         7           Ti  tau(   7) = (  0.6651800  0.3348200  0.6666900  )
         8           Ti  tau(   8) = (  0.3348200  0.6651800  0.3333100  )
         9           Ti  tau(   9) = (  0.8443400  0.1556600  0.8390700  )
        10           Ti  tau(  10) = (  0.1556600  0.8443400  0.1609300  )
        11           O   tau(  11) = (  0.5004500  0.4995500  0.2620300  )
        12           O   tau(  12) = (  0.4995500  0.5004500  0.7379700  )
        13           O   tau(  13) = (  0.8677500  0.6675900  0.0847900  )
        14           O   tau(  14) = (  0.6675900  0.8677500  0.9152100  )
        15           O   tau(  15) = (  0.1322500  0.3324100  0.9152100  )
        16           O   tau(  16) = (  0.3324100  0.1322500  0.0847900  )
        17           O   tau(  17) = (  0.3174300  0.6825700  0.0810700  )
        18           O   tau(  18) = (  0.6825700  0.3174300  0.9189300  )
        19           O   tau(  19) = (  0.8098400  0.6549600  0.5966700  )
        20           O   tau(  20) = (  0.6549600  0.8098400  0.4033300  )
        21           O   tau(  21) = (  0.1901600  0.3450400  0.4033300  )
        22           O   tau(  22) = (  0.3450400  0.1901600  0.5966700  )
        23           O   tau(  23) = (  0.3452500  0.6547500  0.5956400  )
        24           O   tau(  24) = (  0.6547500  0.3452500  0.4043600  )
        25           O   tau(  25) = (  0.8343000  0.1657000  0.5936900  )
        26           O   tau(  26) = (  0.1657000  0.8343000  0.4063100  )
        27           O   tau(  27) = (  0.5396900  0.0193300  0.7434000  )
        28           O   tau(  28) = (  0.0193300  0.5396900  0.2566000  )
        29           O   tau(  29) = (  0.4603100  0.9806700  0.2566000  )
        30           O   tau(  30) = (  0.9806700  0.4603100  0.7434000  )
        31           O   tau(  31) = (  0.8228200  0.1771800  0.0689200  )
        32           O   tau(  32) = (  0.1771800  0.8228200  0.9310800  )
        33           O   tau(  33) = (  0.9830600  0.0169400  0.7451900  )
        34           O   tau(  34) = (  0.0169400  0.9830600  0.2548100  )
        35           Li  tau(  35) = (  0.4971300  0.5028700  0.8779400  )
        36           Li  tau(  36) = (  0.5028700  0.4971300  0.1220600  )
        37           Li  tau(  37) = (  0.8274000  0.1726000  0.2043000  )
        38           Li  tau(  38) = (  0.1726000  0.8274000  0.7957000  )
        39           Li  tau(  39) = (  0.8340700  0.1659300  0.4525100  )
        40           Li  tau(  40) = (  0.1659300  0.8340700  0.5474900  )
        41           Li  tau(  41) = (  0.5000000  0.5000000  0.5000000  )
        42           Li  tau(  42) = (  0.0000000  0.0000000  0.0000000  )

     number of k points=    32
                       cart. coord. in units 2pi/alat
        k(    1) = (   0.0312500   0.0902110   0.0765473), wk =   0.0625000
        k(    2) = (   0.0312500   0.0902110   0.2806733), wk =   0.0625000
        k(    3) = (   0.0312500   0.3788861   0.0765473), wk =   0.0625000
        k(    4) = (   0.0312500   0.3788861   0.2806733), wk =   0.0625000
        k(    5) = (   0.0312500   0.6675612   0.0765473), wk =   0.0625000
        k(    6) = (   0.0312500   0.6675612   0.2806733), wk =   0.0625000
        k(    7) = (   0.0312500   0.9562364   0.0765473), wk =   0.0625000
        k(    8) = (   0.0312500   0.9562364   0.2806733), wk =   0.0625000
        k(    9) = (   0.2812500   0.2345485   0.0765473), wk =   0.0625000
        k(   10) = (   0.2812500   0.2345485   0.2806733), wk =   0.0625000
        k(   11) = (   0.2812500   0.5232237   0.0765473), wk =   0.0625000
        k(   12) = (   0.2812500   0.5232237   0.2806733), wk =   0.0625000
        k(   13) = (   0.2812500   0.8118988   0.0765473), wk =   0.0625000
        k(   14) = (   0.2812500   0.8118988   0.2806733), wk =   0.0625000
        k(   15) = (   0.2812500   1.1005740   0.0765473), wk =   0.0625000
        k(   16) = (   0.2812500   1.1005740   0.2806733), wk =   0.0625000
        k(   17) = (   0.5312500   0.3788861   0.0765473), wk =   0.0625000
        k(   18) = (   0.5312500   0.3788861   0.2806733), wk =   0.0625000
        k(   19) = (   0.5312500   0.6675612   0.0765473), wk =   0.0625000
        k(   20) = (   0.5312500   0.6675612   0.2806733), wk =   0.0625000
        k(   21) = (   0.5312500   0.9562364   0.0765473), wk =   0.0625000
        k(   22) = (   0.5312500   0.9562364   0.2806733), wk =   0.0625000
        k(   23) = (   0.5312500   1.2449115   0.0765473), wk =   0.0625000
        k(   24) = (   0.5312500   1.2449115   0.2806733), wk =   0.0625000
        k(   25) = (   0.7812500   0.5232237   0.0765473), wk =   0.0625000
        k(   26) = (   0.7812500   0.5232237   0.2806733), wk =   0.0625000
        k(   27) = (   0.7812500   0.8118988   0.0765473), wk =   0.0625000
        k(   28) = (   0.7812500   0.8118988   0.2806733), wk =   0.0625000
        k(   29) = (   0.7812500   1.1005740   0.0765473), wk =   0.0625000
        k(   30) = (   0.7812500   1.1005740   0.2806733), wk =   0.0625000
        k(   31) = (   0.7812500   1.3892491   0.0765473), wk =   0.0625000
        k(   32) = (   0.7812500   1.3892491   0.2806733), wk =   0.0625000

                       cryst. coord.
        k(    1) = (   0.0312500   0.0625000   0.1875000), wk =   0.0625000
        k(    2) = (   0.0312500   0.0625000   0.6875000), wk =   0.0625000
        k(    3) = (   0.0312500   0.3125000   0.1875000), wk =   0.0625000
        k(    4) = (   0.0312500   0.3125000   0.6875000), wk =   0.0625000
        k(    5) = (   0.0312500   0.5625000   0.1875000), wk =   0.0625000
        k(    6) = (   0.0312500   0.5625000   0.6875000), wk =   0.0625000
        k(    7) = (   0.0312500   0.8125000   0.1875000), wk =   0.0625000
        k(    8) = (   0.0312500   0.8125000   0.6875000), wk =   0.0625000
        k(    9) = (   0.2812500   0.0625000   0.1875000), wk =   0.0625000
        k(   10) = (   0.2812500   0.0625000   0.6875000), wk =   0.0625000
        k(   11) = (   0.2812500   0.3125000   0.1875000), wk =   0.0625000
        k(   12) = (   0.2812500   0.3125000   0.6875000), wk =   0.0625000
        k(   13) = (   0.2812500   0.5625000   0.1875000), wk =   0.0625000
        k(   14) = (   0.2812500   0.5625000   0.6875000), wk =   0.0625000
        k(   15) = (   0.2812500   0.8125000   0.1875000), wk =   0.0625000
        k(   16) = (   0.2812500   0.8125000   0.6875000), wk =   0.0625000
        k(   17) = (   0.5312500   0.0625000   0.1875000), wk =   0.0625000
        k(   18) = (   0.5312500   0.0625000   0.6875000), wk =   0.0625000
        k(   19) = (   0.5312500   0.3125000   0.1875000), wk =   0.0625000
        k(   20) = (   0.5312500   0.3125000   0.6875000), wk =   0.0625000
        k(   21) = (   0.5312500   0.5625000   0.1875000), wk =   0.0625000
        k(   22) = (   0.5312500   0.5625000   0.6875000), wk =   0.0625000
        k(   23) = (   0.5312500   0.8125000   0.1875000), wk =   0.0625000
        k(   24) = (   0.5312500   0.8125000   0.6875000), wk =   0.0625000
        k(   25) = (   0.7812500   0.0625000   0.1875000), wk =   0.0625000
        k(   26) = (   0.7812500   0.0625000   0.6875000), wk =   0.0625000
        k(   27) = (   0.7812500   0.3125000   0.1875000), wk =   0.0625000
        k(   28) = (   0.7812500   0.3125000   0.6875000), wk =   0.0625000
        k(   29) = (   0.7812500   0.5625000   0.1875000), wk =   0.0625000
        k(   30) = (   0.7812500   0.5625000   0.6875000), wk =   0.0625000
        k(   31) = (   0.7812500   0.8125000   0.1875000), wk =   0.0625000
        k(   32) = (   0.7812500   0.8125000   0.6875000), wk =   0.0625000

     Dense  grid:   398521 G-vectors     FFT dimensions: (  72,  72, 180)

     Estimated max dynamical RAM per process >     859.39MB

     Estimated total allocated dynamical RAM >  110002.12MB

     The potential is recalculated from file :
     ./Out/system.save/charge-density.dat

     Starting wfc are  602 randomized atomic wfcs

     Band Structure Calculation
     Davidson diagonalization with overlap

     Computing kpt #:     1
     total cpu time spent up to now is      344.6 secs

     ethr =  4.04E-10,  avg # of iterations = 16.1

     total cpu time spent up to now is      344.6 secs

     End of band structure calculation

          k = 0.0312 0.0902 0.0765 ( 49821 PWs)   bands (ev):

   -48.8758 -48.8757 -48.8101 -48.8096 -48.7988 -48.7985 -48.3655 -48.3423
   -48.3112 -48.2891 -26.6915 -26.6910 -26.3910 -26.3906 -26.3808 -26.3806
   -26.3116 -26.3071 -26.1680 -26.1674 -26.1525 -26.1514 -26.1038 -26.0553
   -26.0543 -26.0307 -26.0306 -26.0273 -26.0272 -25.8828 -25.8545 -25.8192
   -25.7608 -25.7412 -25.7184 -25.6702 -25.6308 -25.5952 -25.5761 -25.5025
   -11.3806 -11.3287 -10.7086 -10.5821 -10.4563 -10.2961 -10.2654 -10.2355
   -10.2015 -10.1079 -10.0996  -9.9891  -9.9082  -9.8386  -9.6949  -9.6742
    -9.6545  -9.6177  -9.5908  -9.5022  -9.4152  -9.3819  -9.3157  -8.8617
     0.7780   0.8516   1.3155   1.3328   1.4047   1.4908   1.5213   1.7313
     1.7951   2.0805   2.1088   2.1761   2.2341   2.3197   2.3584   2.4425
     2.5414   2.5719   2.5867   2.6712   2.6936   2.6991   2.7549   2.7719
     2.8620   2.9040   2.9511   2.9923   3.0329   3.0811   3.1635   3.2285
     3.3051   3.3998   3.6269   3.6959   3.7591   3.8591   3.9201   3.9687
     4.0379   4.0684   4.1719   4.2266   4.2450   4.2696   4.3066   4.3234
     4.4514   4.5078   4.5861   4.6447   4.6720   4.6942   4.8103   4.8599
     4.8812   4.9055   4.9267   4.9673   5.0016   5.0632   5.2597   5.3122
     5.4223   5.4363   5.4491   5.4762   5.5980   5.7307   5.9181   5.9579
     8.1777   8.2111   8.3609   8.3854   8.9524   8.9824   9.0604   9.0821
     9.2395   9.2495   9.3033   9.3580   9.5184   9.5557   9.5626   9.5802
     9.5888   9.6111   9.6314   9.7181   9.7957   9.8250   9.8750   9.9150
     9.9728  10.0392  10.0800  10.1029  10.1443  10.5610  11.9391  11.9736
    12.1058  12.1421  12.1724  12.2160  12.2926  12.3117  12.3479  12.3858
    12.4378  12.5342  12.5965  12.7126  12.7582  12.8133  12.8295  12.9442
    13.0107  13.1541  13.3287  13.6982  14.2442  15.0910  15.4355  15.6387
    15.6757  15.8233  15.9085  15.9191  16.0775  16.1251  16.2448  16.3471
    16.4868  16.9639  17.2701  17.3990  17.9141  18.0604  18.1611  18.2053
    18.5512  18.9464  19.3127  19.5012  19.6067  19.8183  19.9285  20.0419
    20.0882  20.2312  20.4200  20.4807  20.7316  20.7502  20.9177  20.9279
    21.0119  21.1093  21.3843  21.5640  21.6422  21.6906  21.7778  21.8624
    22.0621  22.2276  22.2555  22.3650  22.4846  22.5801  22.6681  22.7154
    22.9412  23.0916  23.2656  23.3052  23.3666  23.5119  23.6609  23.7994
    23.9347  24.0149  24.1375  24.4347  24.5825  24.8348  24.8896  24.9128
    25.0239  25.1358  25.3817  25.4320  25.5069  25.6360  26.1091  26.1292
    26.1535  26.3176  26.3663  26.4396  26.5184  26.5658  26.6205  26.7138
    26.8442  26.9235  26.9948  27.0971  27.1674  27.5057  27.5473  27.6927
    27.7153  27.7828  27.8859  27.9514  28.0226  28.1072  28.1787  28.1943
    28.2383  28.3543  28.5068  28.7372  28.8649  29.0176  29.5955  29.8795
    30.4322  30.5142  30.6506  30.7973  30.9231  30.9614  31.0715  31.2115
    31.3073  31.4266  31.5625  31.6437  31.6799  32.0075  32.0758  32.1836
    32.3770  32.6150  32.7110  32.7789  32.9057  32.9816  33.1019  33.2804
    33.3230  33.3920  33.4176  33.5803  33.6779  33.7254  33.8848  33.9817
    34.0425  34.3226  34.4017  34.5163  34.5826  34.7337  34.8892  34.9634
    35.1084  35.1358  35.4103  35.4826  35.5478  35.6594  35.6908  35.8581
    35.8847  36.1088  36.1742  36.4592  36.5266  36.5585  36.6374  36.7682
    36.8661  36.9521  37.1397  37.1777  37.2268  37.2849  37.3577  37.5011
    37.6396  37.6608  37.7387  37.7914  37.9604  38.0551  38.1329  38.1585
    38.2957  38.3886  38.5273  38.5649  38.6418  38.6985  38.7828  38.8778
    38.9745  39.0227  39.0843  39.2282  39.3009  39.4845  39.5824  39.6135
    39.7380  39.8902  39.9171  39.9978  40.1187  40.3134  40.4611  40.5346
    40.6122  40.7285  40.7882  40.9831  41.0540  41.0948  41.3226  41.4004
    41.5031  41.5887  41.6281  41.7091  41.7723  41.8327  41.8977  42.0446
    42.1590  42.2258  42.3186  42.3902  42.5200  42.5402  42.7385  42.7946
    42.9237  42.9796  43.0194  43.1264  43.3371  43.3580  43.3796  43.5135
    43.6606  43.8038  43.9691  44.0025  44.0362  44.1895  44.2149  44.2866
    44.3782  44.5318  44.6359  44.7239  44.8628  44.9241  45.0049  45.2090
    45.3265  45.4328  45.4850  45.5729  45.8339  45.8796  45.9817  46.0981
    46.2060  46.2317  46.2801  46.3911  46.4988  46.5264  46.7852  46.8739
    46.9246  46.9884  47.0922  47.1254  47.2708  47.3578  47.4930  47.5863
    47.7289  47.8024  47.9058  47.9609  48.1153  48.1886  48.2245  48.2711
    48.4693  48.5278  48.5642  48.6681  48.7623  48.9133  48.9540  49.0238
    49.0434  49.1238  49.1979  49.3176  49.3913  49.4136  49.5054  49.5955
    49.6222  49.6632  49.7042  49.8504  49.9450  49.9699  50.0778  50.2323
    50.3066  50.3578  50.3940  50.4980  50.5449  50.6741  50.6942  50.7913
    50.8746  50.9310  50.9368  50.9666  51.0198  51.1264  51.2341  51.3514
    51.4381  51.4890  51.5442  51.6333  51.6547  51.7842  51.8698  51.9393
    51.9556  52.0261  52.1565  52.1949  52.2449  52.2926  52.3538  52.4177
    52.4780  52.5096  52.6046  52.6323  52.7260  52.7714  52.9239  53.0512
    53.0575  53.1437  53.1939  53.2747  53.3101  53.3405  53.4748  53.5131
    53.5549  53.5993  53.6729  53.7317  53.8148  53.8274  53.8984  54.0287
    54.0835  54.1336  54.2191  54.3585  54.3970  54.4187  54.4965  54.6236
    54.6413  54.7688  54.8150  54.8356  54.8762  54.9503  55.0367  55.0664
    55.3061  55.3479  55.5252  55.5777  55.6466  55.7608  55.8328  55.9095
    56.0699  56.0761  56.1665  56.2876  56.3633  56.5086  56.6119  56.6586
    56.8592  56.9410  57.0674  57.1804  57.1938  57.3268  57.4521  57.5281
    57.7336  57.8344  57.9499  57.9614  58.1451  58.1921  58.3363  58.4245

     occupation numbers 
     1.0000   1.0000   1.0000   1.0000   1.0000   1.0000   1.0000   1.0000
     1.0000   1.0000   1.0000   1.0000   1.0000   1.0000   1.0000   1.0000
     1.0000   1.0000   1.0000   1.0000   1.0000   1.0000   1.0000   1.0000
     1.0000   1.0000   1.0000   1.0000   1.0000   1.0000   1.0000   1.0000
     1.0000   1.0000   1.0000   1.0000   1.0000   1.0000   1.0000   1.0000
     1.0000   1.0000   1.0000   1.0000   1.0000   1.0000   1.0000   1.0000
     1.0000   1.0000   1.0000   1.0000   1.0000   1.0000   1.0000   1.0000
     1.0000   1.0000   1.0000   1.0000   1.0000   1.0000   1.0000   1.0000
     1.0000   1.0000   1.0000   1.0000   1.0000   1.0000   1.0000   1.0000
     1.0000   1.0000   1.0000   1.0000   1.0000   1.0000   1.0000   1.0000
     1.0000   1.0000   1.0000   1.0000   1.0000   1.0000   1.0000   1.0000
     1.0000   1.0000   1.0000   1.0000   1.0000   1.0000   1.0000   1.0000
     1.0000   1.0000   1.0000   1.0000   1.0000   1.0000   1.0000   1.0000
     1.0000   1.0000   1.0000   1.0000   1.0000   1.0000   1.0000   1.0000
     1.0000   1.0000   1.0000   1.0000   1.0000   1.0000   1.0000   1.0000
     1.0000   1.0000   1.0000   1.0000   1.0000   1.0000   1.0000   1.0000
     1.0000   1.0000   1.0000   1.0000   1.0000   1.0000   1.0000   1.0000
     0.0000   0.0000   0.0000   0.0000   0.0000   0.0000   0.0000   0.0000
     0.0000   0.0000   0.0000   0.0000   0.0000   0.0000   0.0000   0.0000
     0.0000   0.0000   0.0000   0.0000   0.0000   0.0000   0.0000   0.0000
     0.0000   0.0000   0.0000   0.0000   0.0000   0.0000   0.0000   0.0000
     0.0000   0.0000   0.0000   0.0000   0.0000   0.0000   0.0000   0.0000
     0.0000   0.0000   0.0000   0.0000   0.0000   0.0000   0.0000   0.0000
     0.0000   0.0000   0.0000   0.0000   0.0000   0.0000   0.0000   0.0000
     0.0000   0.0000   0.0000   0.0000   0.0000   0.0000   0.0000   0.0000
     0.0000   0.0000   0.0000   0.0000   0.0000   0.0000   0.0000   0.0000
     0.0000   0.0000   0.0000   0.0000   0.0000   0.0000   0.0000   0.0000
     0.0000   0.0000   0.0000   0.0000   0.0000   0.0000   0.0000   0.0000
     0.0000   0.0000   0.0000   0.0000   0.0000   0.0000   0.0000   0.0000
     0.0000   0.0000   0.0000   0.0000   0.0000   0.0000   0.0000   0.0000
     0.0000   0.0000   0.0000   0.0000   0.0000   0.0000   0.0000   0.0000
     0.0000   0.0000   0.0000   0.0000   0.0000   0.0000   0.0000   0.0000
     0.0000   0.0000   0.0000   0.0000   0.0000   0.0000   0.0000   0.0000
     0.0000   0.0000   0.0000   0.0000   0.0000   0.0000   0.0000   0.0000
     0.0000   0.0000   0.0000   0.0000   0.0000   0.0000   0.0000   0.0000
     0.0000   0.0000   0.0000   0.0000   0.0000   0.0000   0.0000   0.0000
     0.0000   0.0000   0.0000   0.0000   0.0000   0.0000   0.0000   0.0000
     0.0000   0.0000   0.0000   0.0000   0.0000   0.0000   0.0000   0.0000
     0.0000   0.0000   0.0000   0.0000   0.0000   0.0000   0.0000   0.0000
     0.0000   0.0000   0.0000   0.0000   0.0000   0.0000   0.0000   0.0000
     0.0000   0.0000   0.0000   0.0000   0.0000   0.0000   0.0000   0.0000
     0.0000   0.0000   0.0000   0.0000   0.0000   0.0000   0.0000   0.0000
     0.0000   0.0000   0.0000   0.0000   0.0000   0.0000   0.0000   0.0000
     0.0000   0.0000   0.0000   0.0000   0.0000   0.0000   0.0000   0.0000
     0.0000   0.0000   0.0000   0.0000   0.0000   0.0000   0.0000   0.0000
     0.0000   0.0000   0.0000   0.0000   0.0000   0.0000   0.0000   0.0000
     0.0000   0.0000   0.0000   0.0000   0.0000   0.0000   0.0000   0.0000
     0.0000   0.0000   0.0000   0.0000   0.0000   0.0000   0.0000   0.0000
     0.0000   0.0000   0.0000   0.0000   0.0000   0.0000   0.0000   0.0000
     0.0000   0.0000   0.0000   0.0000   0.0000   0.0000   0.0000   0.0000
     0.0000   0.0000   0.0000   0.0000   0.0000   0.0000   0.0000   0.0000
     0.0000   0.0000   0.0000   0.0000   0.0000   0.0000   0.0000   0.0000
     0.0000   0.0000   0.0000   0.0000   0.0000   0.0000   0.0000   0.0000
     0.0000   0.0000   0.0000   0.0000   0.0000   0.0000   0.0000   0.0000
     0.0000   0.0000   0.0000   0.0000   0.0000   0.0000   0.0000   0.0000
     0.0000   0.0000   0.0000   0.0000   0.0000   0.0000   0.0000   0.0000
     0.0000   0.0000   0.0000   0.0000   0.0000   0.0000   0.0000   0.0000
     0.0000   0.0000   0.0000   0.0000   0.0000   0.0000   0.0000   0.0000
     0.0000   0.0000   0.0000   0.0000   0.0000   0.0000   0.0000   0.0000
     0.0000   0.0000   0.0000   0.0000   0.0000   0.0000   0.0000   0.0000
     0.0000   0.0000   0.0000   0.0000   0.0000   0.0000   0.0000   0.0000
     0.0000   0.0000   0.0000   0.0000   0.0000   0.0000   0.0000   0.0000
     0.0000   0.0000   0.0000   0.0000   0.0000   0.0000   0.0000   0.0000
     0.0000   0.0000   0.0000   0.0000   0.0000   0.0000   0.0000   0.0000
     0.0000   0.0000   0.0000   0.0000   0.0000   0.0000   0.0000   0.0000
     0.0000   0.0000   0.0000   0.0000   0.0000   0.0000   0.0000   0.0000
     0.0000   0.0000   0.0000   0.0000   0.0000   0.0000   0.0000   0.0000
     0.0000   0.0000   0.0000   0.0000   0.0000   0.0000   0.0000   0.0000
     0.0000   0.0000   0.0000   0.0000   0.0000   0.0000   0.0000   0.0000
     0.0000   0.0000   0.0000   0.0000   0.0000   0.0000   0.0000   0.0000
     0.0000   0.0000   0.0000   0.0000   0.0000   0.0000   0.0000   0.0000
     0.0000   0.0000   0.0000   0.0000   0.0000   0.0000   0.0000   0.0000
     0.0000   0.0000   0.0000   0.0000   0.0000   0.0000   0.0000   0.0000
     0.0000   0.0000   0.0000   0.0000   0.0000   0.0000   0.0000   0.0000
     0.0000   0.0000   0.0000   0.0000   0.0000   0.0000   0.0000   0.0000

          k = 0.0312 0.0902 0.2807 ( 49839 PWs)   bands (ev):

   -48.8759 -48.8757 -48.8101 -48.8096 -48.7988 -48.7985 -48.3655 -48.3423
   -48.3112 -48.2891 -26.6915 -26.6910 -26.3910 -26.3906 -26.3807 -26.3806
   -26.3118 -26.3068 -26.1681 -26.1673 -26.1524 -26.1515 -26.1039 -26.0553
   -26.0543 -26.0307 -26.0306 -26.0273 -26.0272 -25.8828 -25.8545 -25.8192
   -25.7608 -25.7412 -25.7184 -25.6702 -25.6308 -25.5952 -25.5761 -25.5025
   -11.3766 -11.3334 -10.7095 -10.5809 -10.4508 -10.2987 -10.2623 -10.2364
   -10.2005 -10.1151 -10.0987 -10.0016  -9.9041  -9.8291  -9.6827  -9.6807
    -9.6605  -9.6232  -9.5775  -9.5095  -9.4148  -9.3834  -9.3150  -8.8617
     0.7893   0.8401   1.3293   1.3432   1.4264   1.4748   1.5018   1.6775
     1.7945   2.0879   2.1253   2.1807   2.2303   2.3058   2.3963   2.4492
     2.5551   2.5743   2.6122   2.6690   2.6819   2.6921   2.7379   2.7703
     2.8750   2.9065   2.9626   2.9985   3.0352   3.0829   3.1513   3.2264
     3.2817   3.3870   3.6296   3.6835   3.7666   3.8713   3.9139   3.9710
     4.0214   4.0686   4.1113   4.2293   4.2412   4.2742   4.3089   4.3317
     4.4622   4.4979   4.5614   4.6426   4.7043   4.7502   4.8203   4.8438
     4.8947   4.9148   4.9358   4.9711   4.9968   5.0842   5.2489   5.3146
     5.4028   5.4524   5.4557   5.4621   5.5600   5.7330   5.9183   5.9585
     8.1888   8.2175   8.3483   8.3778   8.9539   8.9889   9.0501   9.0879
     9.2381   9.2509   9.3020   9.3614   9.5198   9.5540   9.5620   9.5782
     9.5892   9.6157   9.6293   9.7169   9.7955   9.8250   9.8749   9.9131
     9.9752  10.0388  10.0800  10.1029  10.1443  10.5611  11.9355  11.9781
    12.1074  12.1392  12.1748  12.2144  12.2891  12.3139  12.3574  12.3746
    12.4440  12.5293  12.6008  12.7045  12.7663  12.7979  12.8653  12.9154
    13.0641  13.1706  13.3276  13.5289  14.4358  14.9477  15.5241  15.6494
    15.6699  15.8005  15.8671  15.9159  16.0500  16.1805  16.2566  16.3970
    16.6261  16.8483  17.0815  17.2209  18.0441  18.2099  18.2604  18.3277
    18.5673  18.9524  19.1635  19.3449  19.5200  19.8180  19.9162  20.0514
    20.1126  20.2469  20.4218  20.5968  20.7331  20.7571  20.8817  21.0076
    21.0755  21.1328  21.3090  21.4870  21.6480  21.6911  21.7371  21.9079
    22.0433  22.2023  22.2672  22.4053  22.5108  22.5498  22.6421  22.7016
    22.9611  23.0997  23.3000  23.3279  23.4004  23.4993  23.6233  23.7589
    23.8907  24.0361  24.1921  24.2403  24.6119  24.9004  24.9029  24.9375
    25.1277  25.2809  25.3394  25.4340  25.5021  25.6154  25.9788  26.1593
    26.1969  26.2496  26.3730  26.3949  26.5388  26.6016  26.6705  26.7022
    26.8420  26.8704  26.8716  27.0931  27.1662  27.4801  27.5920  27.6458
    27.7294  27.7851  27.9245  27.9917  28.0651  28.1015  28.1792  28.1965
    28.2328  28.2765  28.4921  28.8024  28.9107  29.1790  29.3789  29.6464
    30.4665  30.6040  30.7467  30.9218  30.9833  31.0087  31.1078  31.3081
    31.3810  31.4601  31.5320  31.5898  31.7305  31.9756  32.1289  32.1498
    32.3970  32.5001  32.7073  32.7526  32.8798  32.9884  33.0541  33.1015
    33.2181  33.3773  33.4118  33.4789  33.5879  33.6862  33.8758  34.0070
    34.0533  34.2125  34.3408  34.4146  34.5493  34.7831  34.9437  35.0777
    35.2085  35.2746  35.3837  35.4788  35.5644  35.6781  35.7336  35.8523
    35.9806  36.1635  36.2481  36.4091  36.4510  36.6020  36.7253  36.7689
    36.8897  36.9575  37.0508  37.2053  37.2867  37.3400  37.4069  37.5308
    37.6008  37.7300  37.7548  37.7755  37.9757  38.0469  38.1079  38.1944
    38.2966  38.4230  38.5299  38.6536  38.6826  38.8187  38.8402  38.8666
    38.9944  39.0858  39.1374  39.3046  39.3335  39.4318  39.5311  39.5720
    39.6545  39.6939  39.7477  39.9390  40.0773  40.2123  40.3485  40.3764
    40.5144  40.5789  40.6896  40.7247  40.9033  41.0284  41.2113  41.3942
    41.5159  41.6199  41.6889  41.7821  41.8366  41.8678  41.9930  42.0770
    42.1808  42.3125  42.3471  42.4472  42.5092  42.5563  42.7357  42.8985
    42.9896  43.0558  43.1307  43.2398  43.4636  43.4810  43.5414  43.6474
    43.7427  43.8212  43.9417  43.9984  44.0449  44.1923  44.2415  44.3352
    44.4221  44.4726  44.6406  44.7027  44.8030  44.9348  44.9845  45.2278
    45.2993  45.3926  45.4546  45.4832  45.6332  45.8300  45.9276  45.9850
    46.1800  46.1954  46.2986  46.3621  46.4161  46.5734  46.6524  46.7937
    46.9330  47.0521  47.1086  47.2133  47.3033  47.4521  47.5342  47.6147
    47.6763  47.8045  47.8942  48.0205  48.1269  48.1948  48.2469  48.3317
    48.4483  48.5166  48.5841  48.6778  48.7725  48.8445  48.9073  49.0018
    49.0494  49.1238  49.1528  49.1899  49.2826  49.3924  49.4086  49.5885
    49.6650  49.7679  49.7748  49.9118  49.9857  50.0674  50.1731  50.2093
    50.3161  50.3760  50.4195  50.5329  50.5523  50.5789  50.7089  50.7818
    50.8115  50.8779  50.9247  51.0054  51.0256  51.0751  51.2488  51.3423
    51.4597  51.5089  51.5899  51.6000  51.7193  51.7674  51.8358  51.9060
    51.9902  52.0960  52.1508  52.1881  52.2089  52.3309  52.3449  52.3820
    52.4820  52.5276  52.6155  52.6585  52.6626  52.7499  52.9049  52.9690
    53.0383  53.0911  53.1527  53.2309  53.2610  53.3515  53.4770  53.5274
    53.5437  53.5951  53.6988  53.7205  53.7589  53.8829  53.9614  54.0302
    54.1360  54.1888  54.2300  54.3108  54.3495  54.3890  54.4354  54.5307
    54.6077  54.7165  54.7648  54.8695  54.9693  55.0024  55.0767  55.2760
    55.3422  55.4247  55.4762  55.5898  55.6693  55.7968  55.8687  55.9348
    56.0850  56.1489  56.2514  56.3205  56.3953  56.5424  56.5847  56.7392
    56.7589  56.9331  57.1538  57.2216  57.2928  57.3838  57.5043  57.5321
    57.6402  57.7066  57.7922  58.0170  58.0454  58.1574  58.3107  58.4356

     occupation numbers 
     1.0000   1.0000   1.0000   1.0000   1.0000   1.0000   1.0000   1.0000
     1.0000   1.0000   1.0000   1.0000   1.0000   1.0000   1.0000   1.0000
     1.0000   1.0000   1.0000   1.0000   1.0000   1.0000   1.0000   1.0000
     1.0000   1.0000   1.0000   1.0000   1.0000   1.0000   1.0000   1.0000
     1.0000   1.0000   1.0000   1.0000   1.0000   1.0000   1.0000   1.0000
     1.0000   1.0000   1.0000   1.0000   1.0000   1.0000   1.0000   1.0000
     1.0000   1.0000   1.0000   1.0000   1.0000   1.0000   1.0000   1.0000
     1.0000   1.0000   1.0000   1.0000   1.0000   1.0000   1.0000   1.0000
     1.0000   1.0000   1.0000   1.0000   1.0000   1.0000   1.0000   1.0000
     1.0000   1.0000   1.0000   1.0000   1.0000   1.0000   1.0000   1.0000
     1.0000   1.0000   1.0000   1.0000   1.0000   1.0000   1.0000   1.0000
     1.0000   1.0000   1.0000   1.0000   1.0000   1.0000   1.0000   1.0000
     1.0000   1.0000   1.0000   1.0000   1.0000   1.0000   1.0000   1.0000
     1.0000   1.0000   1.0000   1.0000   1.0000   1.0000   1.0000   1.0000
     1.0000   1.0000   1.0000   1.0000   1.0000   1.0000   1.0000   1.0000
     1.0000   1.0000   1.0000   1.0000   1.0000   1.0000   1.0000   1.0000
     1.0000   1.0000   1.0000   1.0000   1.0000   1.0000   1.0000   1.0000
     0.0000   0.0000   0.0000   0.0000   0.0000   0.0000   0.0000   0.0000
     0.0000   0.0000   0.0000   0.0000   0.0000   0.0000   0.0000   0.0000
     0.0000   0.0000   0.0000   0.0000   0.0000   0.0000   0.0000   0.0000
     0.0000   0.0000   0.0000   0.0000   0.0000   0.0000   0.0000   0.0000
     0.0000   0.0000   0.0000   0.0000   0.0000   0.0000   0.0000   0.0000
     0.0000   0.0000   0.0000   0.0000   0.0000   0.0000   0.0000   0.0000
     0.0000   0.0000   0.0000   0.0000   0.0000   0.0000   0.0000   0.0000
     0.0000   0.0000   0.0000   0.0000   0.0000   0.0000   0.0000   0.0000
     0.0000   0.0000   0.0000   0.0000   0.0000   0.0000   0.0000   0.0000
     0.0000   0.0000   0.0000   0.0000   0.0000   0.0000   0.0000   0.0000
     0.0000   0.0000   0.0000   0.0000   0.0000   0.0000   0.0000   0.0000
     0.0000   0.0000   0.0000   0.0000   0.0000   0.0000   0.0000   0.0000
     0.0000   0.0000   0.0000   0.0000   0.0000   0.0000   0.0000   0.0000
     0.0000   0.0000   0.0000   0.0000   0.0000   0.0000   0.0000   0.0000
     0.0000   0.0000   0.0000   0.0000   0.0000   0.0000   0.0000   0.0000
     0.0000   0.0000   0.0000   0.0000   0.0000   0.0000   0.0000   0.0000
     0.0000   0.0000   0.0000   0.0000   0.0000   0.0000   0.0000   0.0000
     0.0000   0.0000   0.0000   0.0000   0.0000   0.0000   0.0000   0.0000
     0.0000   0.0000   0.0000   0.0000   0.0000   0.0000   0.0000   0.0000
     0.0000   0.0000   0.0000   0.0000   0.0000   0.0000   0.0000   0.0000
     0.0000   0.0000   0.0000   0.0000   0.0000   0.0000   0.0000   0.0000
     0.0000   0.0000   0.0000   0.0000   0.0000   0.0000   0.0000   0.0000
     0.0000   0.0000   0.0000   0.0000   0.0000   0.0000   0.0000   0.0000
     0.0000   0.0000   0.0000   0.0000   0.0000   0.0000   0.0000   0.0000
     0.0000   0.0000   0.0000   0.0000   0.0000   0.0000   0.0000   0.0000
     0.0000   0.0000   0.0000   0.0000   0.0000   0.0000   0.0000   0.0000
     0.0000   0.0000   0.0000   0.0000   0.0000   0.0000   0.0000   0.0000
     0.0000   0.0000   0.0000   0.0000   0.0000   0.0000   0.0000   0.0000
     0.0000   0.0000   0.0000   0.0000   0.0000   0.0000   0.0000   0.0000
     0.0000   0.0000   0.0000   0.0000   0.0000   0.0000   0.0000   0.0000
     0.0000   0.0000   0.0000   0.0000   0.0000   0.0000   0.0000   0.0000
     0.0000   0.0000   0.0000   0.0000   0.0000   0.0000   0.0000   0.0000
     0.0000   0.0000   0.0000   0.0000   0.0000   0.0000   0.0000   0.0000
     0.0000   0.0000   0.0000   0.0000   0.0000   0.0000   0.0000   0.0000
     0.0000   0.0000   0.0000   0.0000   0.0000   0.0000   0.0000   0.0000
     0.0000   0.0000   0.0000   0.0000   0.0000   0.0000   0.0000   0.0000
     0.0000   0.0000   0.0000   0.0000   0.0000   0.0000   0.0000   0.0000
     0.0000   0.0000   0.0000   0.0000   0.0000   0.0000   0.0000   0.0000
     0.0000   0.0000   0.0000   0.0000   0.0000   0.0000   0.0000   0.0000
     0.0000   0.0000   0.0000   0.0000   0.0000   0.0000   0.0000   0.0000
     0.0000   0.0000   0.0000   0.0000   0.0000   0.0000   0.0000   0.0000
     0.0000   0.0000   0.0000   0.0000   0.0000   0.0000   0.0000   0.0000
     0.0000   0.0000   0.0000   0.0000   0.0000   0.0000   0.0000   0.0000
     0.0000   0.0000   0.0000   0.0000   0.0000   0.0000   0.0000   0.0000
     0.0000   0.0000   0.0000   0.0000   0.0000   0.0000   0.0000   0.0000
     0.0000   0.0000   0.0000   0.0000   0.0000   0.0000   0.0000   0.0000
     0.0000   0.0000   0.0000   0.0000   0.0000   0.0000   0.0000   0.0000
     0.0000   0.0000   0.0000   0.0000   0.0000   0.0000   0.0000   0.0000
     0.0000   0.0000   0.0000   0.0000   0.0000   0.0000   0.0000   0.0000
     0.0000   0.0000   0.0000   0.0000   0.0000   0.0000   0.0000   0.0000
     0.0000   0.0000   0.0000   0.0000   0.0000   0.0000   0.0000   0.0000
     0.0000   0.0000   0.0000   0.0000   0.0000   0.0000   0.0000   0.0000
     0.0000   0.0000   0.0000   0.0000   0.0000   0.0000   0.0000   0.0000
     0.0000   0.0000   0.0000   0.0000   0.0000   0.0000   0.0000   0.0000
     0.0000   0.0000   0.0000   0.0000   0.0000   0.0000   0.0000   0.0000
     0.0000   0.0000   0.0000   0.0000   0.0000   0.0000   0.0000   0.0000
     0.0000   0.0000   0.0000   0.0000   0.0000   0.0000   0.0000   0.0000
     0.0000   0.0000   0.0000   0.0000   0.0000   0.0000   0.0000   0.0000

          k = 0.0312 0.3789 0.0765 ( 49817 PWs)   bands (ev):

   -48.8619 -48.8618 -48.8227 -48.8223 -48.8002 -48.7999 -48.3577 -48.3463
   -48.3075 -48.2966 -26.5933 -26.5931 -26.3714 -26.3710 -26.3153 -26.3149
   -26.2806 -26.2793 -26.2013 -26.1979 -26.1745 -26.1737 -26.1541 -26.1537
   -26.1114 -26.1113 -26.0295 -26.0272 -26.0255 -25.9321 -25.7981 -25.7860
   -25.7527 -25.7391 -25.7283 -25.6634 -25.6465 -25.6102 -25.5884 -25.5759
   -11.1372 -11.0969 -10.5769 -10.5010 -10.3999 -10.3734 -10.3192 -10.1991
   -10.1785 -10.1408 -10.1076 -10.0647  -9.9533  -9.8573  -9.8433  -9.7817
    -9.7210  -9.6705  -9.6425  -9.5773  -9.3748  -9.3492  -9.3034  -9.0396
     1.1603   1.1991   1.6480   1.6876   1.7544   1.8169   1.8442   1.8887
     1.9781   2.0791   2.1254   2.2079   2.2613   2.3171   2.3627   2.4299
     2.4363   2.4956   2.5235   2.5678   2.6502   2.6784   2.7234   2.7812
     2.8299   2.8719   2.9127   2.9875   2.9979   3.1074   3.1694   3.3233
     3.3562   3.4061   3.5024   3.5961   3.6264   3.6397   3.7229   3.7735
     3.8771   3.9347   3.9588   4.0613   4.1654   4.1905   4.2520   4.2952
     4.3629   4.4143   4.4618   4.5373   4.5738   4.5914   4.6486   4.7344
     4.7661   4.8099   4.8297   4.9336   4.9533   5.0175   5.0863   5.1439
     5.2412   5.3025   5.3385   5.4490   5.4964   5.6324   5.8634   6.0249
     8.4635   8.5474   8.6240   8.7671   9.0551   9.1333   9.1459   9.2402
     9.2554   9.3092   9.3473   9.4029   9.4424   9.4894   9.5184   9.5456
     9.5851   9.6014   9.6109   9.6766   9.8567   9.8665   9.9251   9.9454
    10.0181  10.0520  10.0943  10.1096  10.3153  10.4847  11.5177  11.5739
    11.7655  11.8045  11.9383  12.0070  12.0889  12.1572  12.2734  12.3078
    12.3337  12.3393  12.4605  12.5338  12.5770  12.6711  12.7154  12.7920
    12.9234  13.1451  13.7527  14.6749  14.9173  15.1215  15.5349  15.6446
    15.8080  15.9909  16.0244  16.1155  16.2683  16.3525  17.1111  17.3313
    17.4864  17.6078  17.9946  18.1738  18.3092  18.3861  18.4350  18.6452
    18.8321  19.2776  19.5002  19.5177  19.5804  19.8330  19.8988  19.9595
    19.9978  20.0329  20.1997  20.2756  20.3400  20.5062  20.5943  20.7211
    20.8771  20.9504  21.0251  21.0360  21.1343  21.2235  21.3739  21.5274
    21.5842  21.8925  22.0662  22.2817  22.3101  22.4254  22.4912  22.9484
    23.0459  23.1731  23.2854  23.3327  23.3946  23.6311  23.7229  23.9030
    23.9590  24.0373  24.2374  24.3535  24.4953  24.6558  24.6820  24.8796
    24.9621  25.1162  25.1776  25.2702  25.3276  25.4544  25.5700  25.7761
    25.8396  25.9556  25.9815  26.0300  26.2699  26.3008  26.4246  26.4881
    26.5590  26.8386  27.0629  27.1237  27.2248  27.2713  27.5029  27.5808
    27.6213  27.7836  27.9740  28.0325  28.1265  28.3178  28.3414  28.4943
    28.6980  28.7910  28.9693  29.0246  29.1008  29.2243  29.3230  29.3832
    29.9559  30.0104  30.1191  30.2551  30.4102  30.5980  30.8149  31.0917
    31.2344  31.5537  31.7108  31.7770  31.8607  31.9747  32.0505  32.2036
    32.3314  32.4909  32.6866  32.8596  32.9138  32.9703  33.2810  33.3256
    33.4105  33.5044  33.5930  33.8757  33.9575  34.0242  34.1561  34.4331
    34.4809  34.5033  34.6517  34.8091  34.8803  34.9907  35.0566  35.1315
    35.1861  35.3128  35.4970  35.5239  35.5928  35.7031  35.7858  35.8992
    35.9386  36.0555  36.1071  36.2137  36.4404  36.4662  36.5234  36.6160
    36.8424  36.8948  36.9498  37.1404  37.2652  37.2976  37.4648  37.5357
    37.7641  37.8086  37.9234  37.9953  38.0821  38.1193  38.2665  38.3964
    38.4517  38.5541  38.5723  38.7066  38.7523  38.8509  38.9574  39.0588
    39.1709  39.2097  39.3686  39.4634  39.6009  39.7509  39.7864  39.9157
    40.0568  40.1039  40.3023  40.5062  40.5449  40.5763  40.6439  40.7631
    40.8734  40.9043  41.0499  41.0924  41.1643  41.2804  41.3088  41.3778
    41.4568  41.5726  41.6678  41.7462  41.7978  41.9374  41.9498  42.0633
    42.1483  42.1959  42.2971  42.3629  42.5189  42.5685  42.7346  42.7676
    42.8143  43.0023  43.1034  43.1307  43.2416  43.3317  43.3779  43.3902
    43.5006  43.6063  43.6912  43.7782  43.9157  44.0661  44.1282  44.1722
    44.2515  44.3856  44.4293  44.5429  44.6315  44.7765  44.7955  44.9493
    45.0701  45.1867  45.3250  45.4090  45.5123  45.5644  45.6487  45.7276
    45.8377  46.0469  46.1613  46.2509  46.3425  46.4026  46.4870  46.5610
    46.6273  46.7036  46.8058  46.8757  47.0232  47.0855  47.1646  47.2534
    47.3156  47.3671  47.5966  47.6117  47.6475  47.7720  47.8163  47.9594
    48.0466  48.1359  48.2583  48.3387  48.4562  48.5618  48.6313  48.7329
    48.7693  48.8082  48.9352  48.9899  49.1560  49.2423  49.3675  49.3877
    49.4804  49.5761  49.6507  49.6903  49.7772  49.9253  49.9766  50.0266
    50.1470  50.1664  50.2069  50.3356  50.3829  50.4255  50.5305  50.6227
    50.7043  50.7717  50.8619  50.9806  51.0764  51.2342  51.2741  51.3530
    51.3848  51.4680  51.5230  51.5901  51.6808  51.8236  51.8870  51.9674
    52.0051  52.1711  52.2567  52.2710  52.3047  52.4079  52.4646  52.5445
    52.6488  52.7542  52.8818  52.9003  53.0095  53.0290  53.0549  53.0970
    53.1618  53.2973  53.3996  53.4412  53.4721  53.6367  53.6847  53.7470
    53.8554  53.9441  54.0038  54.0860  54.1656  54.2199  54.2340  54.3623
    54.5131  54.5959  54.6191  54.7290  54.7695  54.7964  54.8476  54.9482
    54.9642  55.1071  55.1931  55.2376  55.4588  55.5213  55.5749  55.6873
    55.7631  55.8269  55.9611  56.0189  56.0785  56.1839  56.2905  56.3453
    56.4042  56.4589  56.5163  56.7001  56.7757  56.8437  56.9148  57.0145
    57.1804  57.2622  57.4386  57.4685  57.5182  57.6179  57.6388  57.7506
    57.9090  57.9984  58.1439  58.2717  58.3302  58.4803  58.4939  58.6088

     occupation numbers 
     1.0000   1.0000   1.0000   1.0000   1.0000   1.0000   1.0000   1.0000
     1.0000   1.0000   1.0000   1.0000   1.0000   1.0000   1.0000   1.0000
     1.0000   1.0000   1.0000   1.0000   1.0000   1.0000   1.0000   1.0000
     1.0000   1.0000   1.0000   1.0000   1.0000   1.0000   1.0000   1.0000
     1.0000   1.0000   1.0000   1.0000   1.0000   1.0000   1.0000   1.0000
     1.0000   1.0000   1.0000   1.0000   1.0000   1.0000   1.0000   1.0000
     1.0000   1.0000   1.0000   1.0000   1.0000   1.0000   1.0000   1.0000
     1.0000   1.0000   1.0000   1.0000   1.0000   1.0000   1.0000   1.0000
     1.0000   1.0000   1.0000   1.0000   1.0000   1.0000   1.0000   1.0000
     1.0000   1.0000   1.0000   1.0000   1.0000   1.0000   1.0000   1.0000
     1.0000   1.0000   1.0000   1.0000   1.0000   1.0000   1.0000   1.0000
     1.0000   1.0000   1.0000   1.0000   1.0000   1.0000   1.0000   1.0000
     1.0000   1.0000   1.0000   1.0000   1.0000   1.0000   1.0000   1.0000
     1.0000   1.0000   1.0000   1.0000   1.0000   1.0000   1.0000   1.0000
     1.0000   1.0000   1.0000   1.0000   1.0000   1.0000   1.0000   1.0000
     1.0000   1.0000   1.0000   1.0000   1.0000   1.0000   1.0000   1.0000
     1.0000   1.0000   1.0000   1.0000   1.0000   1.0000   1.0000   1.0000
     0.0000   0.0000   0.0000   0.0000   0.0000   0.0000   0.0000   0.0000
     0.0000   0.0000   0.0000   0.0000   0.0000   0.0000   0.0000   0.0000
     0.0000   0.0000   0.0000   0.0000   0.0000   0.0000   0.0000   0.0000
     0.0000   0.0000   0.0000   0.0000   0.0000   0.0000   0.0000   0.0000
     0.0000   0.0000   0.0000   0.0000   0.0000   0.0000   0.0000   0.0000
     0.0000   0.0000   0.0000   0.0000   0.0000   0.0000   0.0000   0.0000
     0.0000   0.0000   0.0000   0.0000   0.0000   0.0000   0.0000   0.0000
     0.0000   0.0000   0.0000   0.0000   0.0000   0.0000   0.0000   0.0000
     0.0000   0.0000   0.0000   0.0000   0.0000   0.0000   0.0000   0.0000
     0.0000   0.0000   0.0000   0.0000   0.0000   0.0000   0.0000   0.0000
     0.0000   0.0000   0.0000   0.0000   0.0000   0.0000   0.0000   0.0000
     0.0000   0.0000   0.0000   0.0000   0.0000   0.0000   0.0000   0.0000
     0.0000   0.0000   0.0000   0.0000   0.0000   0.0000   0.0000   0.0000
     0.0000   0.0000   0.0000   0.0000   0.0000   0.0000   0.0000   0.0000
     0.0000   0.0000   0.0000   0.0000   0.0000   0.0000   0.0000   0.0000
     0.0000   0.0000   0.0000   0.0000   0.0000   0.0000   0.0000   0.0000
     0.0000   0.0000   0.0000   0.0000   0.0000   0.0000   0.0000   0.0000
     0.0000   0.0000   0.0000   0.0000   0.0000   0.0000   0.0000   0.0000
     0.0000   0.0000   0.0000   0.0000   0.0000   0.0000   0.0000   0.0000
     0.0000   0.0000   0.0000   0.0000   0.0000   0.0000   0.0000   0.0000
     0.0000   0.0000   0.0000   0.0000   0.0000   0.0000   0.0000   0.0000
     0.0000   0.0000   0.0000   0.0000   0.0000   0.0000   0.0000   0.0000
     0.0000   0.0000   0.0000   0.0000   0.0000   0.0000   0.0000   0.0000
     0.0000   0.0000   0.0000   0.0000   0.0000   0.0000   0.0000   0.0000
     0.0000   0.0000   0.0000   0.0000   0.0000   0.0000   0.0000   0.0000
     0.0000   0.0000   0.0000   0.0000   0.0000   0.0000   0.0000   0.0000
     0.0000   0.0000   0.0000   0.0000   0.0000   0.0000   0.0000   0.0000
     0.0000   0.0000   0.0000   0.0000   0.0000   0.0000   0.0000   0.0000
     0.0000   0.0000   0.0000   0.0000   0.0000   0.0000   0.0000   0.0000
     0.0000   0.0000   0.0000   0.0000   0.0000   0.0000   0.0000   0.0000
     0.0000   0.0000   0.0000   0.0000   0.0000   0.0000   0.0000   0.0000
     0.0000   0.0000   0.0000   0.0000   0.0000   0.0000   0.0000   0.0000
     0.0000   0.0000   0.0000   0.0000   0.0000   0.0000   0.0000   0.0000
     0.0000   0.0000   0.0000   0.0000   0.0000   0.0000   0.0000   0.0000
     0.0000   0.0000   0.0000   0.0000   0.0000   0.0000   0.0000   0.0000
     0.0000   0.0000   0.0000   0.0000   0.0000   0.0000   0.0000   0.0000
     0.0000   0.0000   0.0000   0.0000   0.0000   0.0000   0.0000   0.0000
     0.0000   0.0000   0.0000   0.0000   0.0000   0.0000   0.0000   0.0000
     0.0000   0.0000   0.0000   0.0000   0.0000   0.0000   0.0000   0.0000
     0.0000   0.0000   0.0000   0.0000   0.0000   0.0000   0.0000   0.0000
     0.0000   0.0000   0.0000   0.0000   0.0000   0.0000   0.0000   0.0000
     0.0000   0.0000   0.0000   0.0000   0.0000   0.0000   0.0000   0.0000
     0.0000   0.0000   0.0000   0.0000   0.0000   0.0000   0.0000   0.0000
     0.0000   0.0000   0.0000   0.0000   0.0000   0.0000   0.0000   0.0000
     0.0000   0.0000   0.0000   0.0000   0.0000   0.0000   0.0000   0.0000
     0.0000   0.0000   0.0000   0.0000   0.0000   0.0000   0.0000   0.0000
     0.0000   0.0000   0.0000   0.0000   0.0000   0.0000   0.0000   0.0000
     0.0000   0.0000   0.0000   0.0000   0.0000   0.0000   0.0000   0.0000
     0.0000   0.0000   0.0000   0.0000   0.0000   0.0000   0.0000   0.0000
     0.0000   0.0000   0.0000   0.0000   0.0000   0.0000   0.0000   0.0000
     0.0000   0.0000   0.0000   0.0000   0.0000   0.0000   0.0000   0.0000
     0.0000   0.0000   0.0000   0.0000   0.0000   0.0000   0.0000   0.0000
     0.0000   0.0000   0.0000   0.0000   0.0000   0.0000   0.0000   0.0000
     0.0000   0.0000   0.0000   0.0000   0.0000   0.0000   0.0000   0.0000
     0.0000   0.0000   0.0000   0.0000   0.0000   0.0000   0.0000   0.0000
     0.0000   0.0000   0.0000   0.0000   0.0000   0.0000   0.0000   0.0000
     0.0000   0.0000   0.0000   0.0000   0.0000   0.0000   0.0000   0.0000
     0.0000   0.0000   0.0000   0.0000   0.0000   0.0000   0.0000   0.0000

          k = 0.0312 0.3789 0.2807 ( 49830 PWs)   bands (ev):

   -48.8619 -48.8618 -48.8227 -48.8223 -48.8002 -48.7999 -48.3577 -48.3463
   -48.3075 -48.2966 -26.5932 -26.5931 -26.3715 -26.3709 -26.3152 -26.3150
   -26.2807 -26.2792 -26.2012 -26.1981 -26.1745 -26.1736 -26.1540 -26.1537
   -26.1114 -26.1113 -26.0295 -26.0272 -26.0255 -25.9321 -25.7981 -25.7860
   -25.7527 -25.7391 -25.7283 -25.6634 -25.6465 -25.6102 -25.5884 -25.5759
   -11.1351 -11.0993 -10.5755 -10.5024 -10.4002 -10.3733 -10.3132 -10.2136
   -10.1652 -10.1497 -10.1067 -10.0575  -9.9585  -9.8639  -9.8311  -9.7792
    -9.7421  -9.6526  -9.6372  -9.5849  -9.3760  -9.3492  -9.3028  -9.0396
     1.1531   1.2087   1.6467   1.7008   1.7679   1.8064   1.8233   1.8548
     2.0445   2.0741   2.1099   2.1869   2.2716   2.3245   2.3602   2.3983
     2.4551   2.4662   2.5170   2.6074   2.6118   2.6973   2.7245   2.7931
     2.8240   2.8826   2.9587   2.9915   3.0438   3.0673   3.2006   3.2349
     3.3220   3.4520   3.5028   3.6090   3.6404   3.6756   3.7047   3.7673
     3.8195   3.8992   3.9435   4.0215   4.2025   4.2220   4.2924   4.3187
     4.4040   4.4220   4.4299   4.4802   4.5500   4.5811   4.6521   4.7614
     4.7651   4.8272   4.8714   4.9332   4.9733   5.0280   5.0700   5.1292
     5.1630   5.3226   5.3704   5.4336   5.5186   5.6078   5.8663   6.0253
     8.4572   8.5554   8.6442   8.7431   9.0549   9.1190   9.1736   9.2286
     9.2651   9.3040   9.3563   9.3828   9.4536   9.4797   9.5234   9.5486
     9.5826   9.5959   9.6176   9.6751   9.8455   9.8811   9.9237   9.9546
    10.0146  10.0577  10.0675  10.1251  10.3153  10.4851  11.5156  11.5732
    11.7653  11.8226  11.9277  12.0355  12.0755  12.1298  12.2501  12.2828
    12.3306  12.3891  12.5011  12.5261  12.5678  12.6567  12.7301  12.7648
    12.9005  13.1473  13.9973  14.2072  15.0966  15.3336  15.5784  15.6683
    15.6957  15.9323  15.9589  16.1309  16.2807  16.3437  16.9782  17.4336
    17.6246  17.7006  17.9146  18.0491  18.1405  18.2825  18.5679  18.8729
    18.9968  19.1427  19.4247  19.5008  19.6099  19.6753  19.8501  19.9284
    19.9959  20.2058  20.2307  20.3454  20.4454  20.5263  20.5871  20.5964
    20.7712  20.8399  21.0143  21.0727  21.1314  21.2563  21.4981  21.5758
    21.6470  21.8358  21.9759  22.0957  22.3405  22.4312  22.8206  22.9307
    23.0178  23.0545  23.2129  23.3896  23.4298  23.5534  23.6804  23.8271
    24.0637  24.1368  24.2745  24.3580  24.5329  24.6312  24.7085  24.7598
    24.8976  25.1139  25.2349  25.2623  25.3366  25.4307  25.6313  25.6839
    25.7775  25.9426  25.9905  26.1355  26.1580  26.4040  26.5056  26.6201
    26.7614  26.8212  26.9423  26.9674  27.0472  27.2400  27.3617  27.5454
    27.8931  27.9114  27.9396  28.0524  28.1285  28.1628  28.2599  28.5116
    28.5825  28.7998  28.9646  29.0992  29.1868  29.3433  29.4450  29.5969
    29.7477  29.9003  30.1761  30.2927  30.5773  30.6512  30.7450  30.7690
    31.1540  31.4387  31.6286  31.7138  31.9947  32.0963  32.1117  32.2265
    32.3593  32.4899  32.6959  32.8253  32.9322  33.0413  33.2019  33.2384
    33.4274  33.4668  33.7209  33.8629  33.9353  33.9402  34.1050  34.2473
    34.3816  34.5468  34.6628  34.9267  34.9372  35.0081  35.0928  35.1942
    35.2493  35.4633  35.5829  35.6693  35.7028  35.7569  35.8446  35.8769
    36.0131  36.0618  36.1829  36.2620  36.3327  36.4598  36.4847  36.6459
    36.6988  36.8401  36.9381  37.0105  37.0772  37.1626  37.3458  37.4461
    37.5917  37.7965  37.8352  37.9400  38.0799  38.1569  38.2082  38.3575
    38.4679  38.5659  38.6140  38.7285  38.7993  38.9788  39.0759  39.1176
    39.2256  39.2798  39.5065  39.5898  39.7064  39.7668  39.8266  39.9321
    39.9703  40.0552  40.1338  40.2865  40.3978  40.5916  40.6093  40.7226
    40.8063  41.0013  41.0484  41.1424  41.1983  41.2474  41.3591  41.3760
    41.4956  41.5382  41.6547  41.7103  41.8219  41.9727  42.0647  42.1532
    42.2967  42.3486  42.4719  42.5484  42.5847  42.6633  42.6851  42.8149
    42.9276  43.0183  43.0619  43.1248  43.2155  43.3010  43.3050  43.3867
    43.4970  43.5155  43.6247  43.7311  43.8629  44.0085  44.0494  44.1005
    44.2292  44.3449  44.5211  44.5664  44.6109  44.6512  44.7773  44.9337
    44.9884  45.0813  45.1627  45.3623  45.4865  45.5236  45.6278  45.7314
    45.8711  45.9921  46.0008  46.1175  46.2201  46.2437  46.4025  46.4387
    46.5092  46.5654  46.7455  46.8607  46.9765  47.0426  47.1296  47.2936
    47.3807  47.5007  47.6296  47.7710  47.8004  47.9049  47.9732  48.0735
    48.1777  48.2540  48.3582  48.4782  48.5595  48.5642  48.7503  48.8131
    48.8723  48.9534  49.0348  49.1204  49.1861  49.2599  49.2866  49.3901
    49.5308  49.5771  49.6461  49.7623  49.8268  49.8603  49.9351  50.0402
    50.1344  50.2135  50.2716  50.3313  50.4209  50.5357  50.5707  50.7795
    50.8041  50.9063  50.9298  50.9990  51.1127  51.2088  51.2241  51.3398
    51.3760  51.4409  51.5009  51.6131  51.6906  51.7325  51.8232  51.8891
    51.9704  52.0290  52.1237  52.2569  52.3152  52.3606  52.4286  52.4812
    52.5461  52.6293  52.7434  52.7589  52.8622  52.9481  52.9965  53.0661
    53.1514  53.2169  53.3393  53.3778  53.4762  53.5223  53.6581  53.7457
    53.7905  53.8466  53.9308  54.0073  54.0390  54.0964  54.1883  54.2114
    54.3335  54.3857  54.4767  54.5672  54.7268  54.8157  54.8768  54.9595
    54.9978  55.0705  55.1967  55.2389  55.3901  55.6071  55.6626  55.6831
    55.7279  55.9027  55.9535  56.1140  56.2074  56.2965  56.3788  56.4277
    56.6096  56.6616  56.7645  56.8786  56.9045  56.9454  57.0949  57.2118
    57.2339  57.3179  57.4259  57.5246  57.6809  57.7570  57.8505  57.8839
    58.0341  58.0583  58.1859  58.3231  58.3465  58.4157  58.4868  58.5191

     occupation numbers 
     1.0000   1.0000   1.0000   1.0000   1.0000   1.0000   1.0000   1.0000
     1.0000   1.0000   1.0000   1.0000   1.0000   1.0000   1.0000   1.0000
     1.0000   1.0000   1.0000   1.0000   1.0000   1.0000   1.0000   1.0000
     1.0000   1.0000   1.0000   1.0000   1.0000   1.0000   1.0000   1.0000
     1.0000   1.0000   1.0000   1.0000   1.0000   1.0000   1.0000   1.0000
     1.0000   1.0000   1.0000   1.0000   1.0000   1.0000   1.0000   1.0000
     1.0000   1.0000   1.0000   1.0000   1.0000   1.0000   1.0000   1.0000
     1.0000   1.0000   1.0000   1.0000   1.0000   1.0000   1.0000   1.0000
     1.0000   1.0000   1.0000   1.0000   1.0000   1.0000   1.0000   1.0000
     1.0000   1.0000   1.0000   1.0000   1.0000   1.0000   1.0000   1.0000
     1.0000   1.0000   1.0000   1.0000   1.0000   1.0000   1.0000   1.0000
     1.0000   1.0000   1.0000   1.0000   1.0000   1.0000   1.0000   1.0000
     1.0000   1.0000   1.0000   1.0000   1.0000   1.0000   1.0000   1.0000
     1.0000   1.0000   1.0000   1.0000   1.0000   1.0000   1.0000   1.0000
     1.0000   1.0000   1.0000   1.0000   1.0000   1.0000   1.0000   1.0000
     1.0000   1.0000   1.0000   1.0000   1.0000   1.0000   1.0000   1.0000
     1.0000   1.0000   1.0000   1.0000   1.0000   1.0000   1.0000   1.0000
     0.0000   0.0000   0.0000   0.0000   0.0000   0.0000   0.0000   0.0000
     0.0000   0.0000   0.0000   0.0000   0.0000   0.0000   0.0000   0.0000
     0.0000   0.0000   0.0000   0.0000   0.0000   0.0000   0.0000   0.0000
     0.0000   0.0000   0.0000   0.0000   0.0000   0.0000   0.0000   0.0000
     0.0000   0.0000   0.0000   0.0000   0.0000   0.0000   0.0000   0.0000
     0.0000   0.0000   0.0000   0.0000   0.0000   0.0000   0.0000   0.0000
     0.0000   0.0000   0.0000   0.0000   0.0000   0.0000   0.0000   0.0000
     0.0000   0.0000   0.0000   0.0000   0.0000   0.0000   0.0000   0.0000
     0.0000   0.0000   0.0000   0.0000   0.0000   0.0000   0.0000   0.0000
     0.0000   0.0000   0.0000   0.0000   0.0000   0.0000   0.0000   0.0000
     0.0000   0.0000   0.0000   0.0000   0.0000   0.0000   0.0000   0.0000
     0.0000   0.0000   0.0000   0.0000   0.0000   0.0000   0.0000   0.0000
     0.0000   0.0000   0.0000   0.0000   0.0000   0.0000   0.0000   0.0000
     0.0000   0.0000   0.0000   0.0000   0.0000   0.0000   0.0000   0.0000
     0.0000   0.0000   0.0000   0.0000   0.0000   0.0000   0.0000   0.0000
     0.0000   0.0000   0.0000   0.0000   0.0000   0.0000   0.0000   0.0000
     0.0000   0.0000   0.0000   0.0000   0.0000   0.0000   0.0000   0.0000
     0.0000   0.0000   0.0000   0.0000   0.0000   0.0000   0.0000   0.0000
     0.0000   0.0000   0.0000   0.0000   0.0000   0.0000   0.0000   0.0000
     0.0000   0.0000   0.0000   0.0000   0.0000   0.0000   0.0000   0.0000
     0.0000   0.0000   0.0000   0.0000   0.0000   0.0000   0.0000   0.0000
     0.0000   0.0000   0.0000   0.0000   0.0000   0.0000   0.0000   0.0000
     0.0000   0.0000   0.0000   0.0000   0.0000   0.0000   0.0000   0.0000
     0.0000   0.0000   0.0000   0.0000   0.0000   0.0000   0.0000   0.0000
     0.0000   0.0000   0.0000   0.0000   0.0000   0.0000   0.0000   0.0000
     0.0000   0.0000   0.0000   0.0000   0.0000   0.0000   0.0000   0.0000
     0.0000   0.0000   0.0000   0.0000   0.0000   0.0000   0.0000   0.0000
     0.0000   0.0000   0.0000   0.0000   0.0000   0.0000   0.0000   0.0000
     0.0000   0.0000   0.0000   0.0000   0.0000   0.0000   0.0000   0.0000
     0.0000   0.0000   0.0000   0.0000   0.0000   0.0000   0.0000   0.0000
     0.0000   0.0000   0.0000   0.0000   0.0000   0.0000   0.0000   0.0000
     0.0000   0.0000   0.0000   0.0000   0.0000   0.0000   0.0000   0.0000
     0.0000   0.0000   0.0000   0.0000   0.0000   0.0000   0.0000   0.0000
     0.0000   0.0000   0.0000   0.0000   0.0000   0.0000   0.0000   0.0000
     0.0000   0.0000   0.0000   0.0000   0.0000   0.0000   0.0000   0.0000
     0.0000   0.0000   0.0000   0.0000   0.0000   0.0000   0.0000   0.0000
     0.0000   0.0000   0.0000   0.0000   0.0000   0.0000   0.0000   0.0000
     0.0000   0.0000   0.0000   0.0000   0.0000   0.0000   0.0000   0.0000
     0.0000   0.0000   0.0000   0.0000   0.0000   0.0000   0.0000   0.0000
     0.0000   0.0000   0.0000   0.0000   0.0000   0.0000   0.0000   0.0000
     0.0000   0.0000   0.0000   0.0000   0.0000   0.0000   0.0000   0.0000
     0.0000   0.0000   0.0000   0.0000   0.0000   0.0000   0.0000   0.0000
     0.0000   0.0000   0.0000   0.0000   0.0000   0.0000   0.0000   0.0000
     0.0000   0.0000   0.0000   0.0000   0.0000   0.0000   0.0000   0.0000
     0.0000   0.0000   0.0000   0.0000   0.0000   0.0000   0.0000   0.0000
     0.0000   0.0000   0.0000   0.0000   0.0000   0.0000   0.0000   0.0000
     0.0000   0.0000   0.0000   0.0000   0.0000   0.0000   0.0000   0.0000
     0.0000   0.0000   0.0000   0.0000   0.0000   0.0000   0.0000   0.0000
     0.0000   0.0000   0.0000   0.0000   0.0000   0.0000   0.0000   0.0000
     0.0000   0.0000   0.0000   0.0000   0.0000   0.0000   0.0000   0.0000
     0.0000   0.0000   0.0000   0.0000   0.0000   0.0000   0.0000   0.0000
     0.0000   0.0000   0.0000   0.0000   0.0000   0.0000   0.0000   0.0000
     0.0000   0.0000   0.0000   0.0000   0.0000   0.0000   0.0000   0.0000
     0.0000   0.0000   0.0000   0.0000   0.0000   0.0000   0.0000   0.0000
     0.0000   0.0000   0.0000   0.0000   0.0000   0.0000   0.0000   0.0000
     0.0000   0.0000   0.0000   0.0000   0.0000   0.0000   0.0000   0.0000
     0.0000   0.0000   0.0000   0.0000   0.0000   0.0000   0.0000   0.0000
     0.0000   0.0000   0.0000   0.0000   0.0000   0.0000   0.0000   0.0000

          k = 0.0312 0.6676 0.0765 ( 49845 PWs)   bands (ev):

   -48.8554 -48.8553 -48.8287 -48.8283 -48.8008 -48.8005 -48.3551 -48.3481
   -48.3058 -48.2991 -26.5548 -26.5546 -26.3598 -26.3593 -26.2759 -26.2752
   -26.2631 -26.2630 -26.2277 -26.2257 -26.2106 -26.2097 -26.1693 -26.1689
   -26.1450 -26.1448 -26.0273 -26.0271 -26.0057 -25.9476 -25.7802 -25.7795
   -25.7535 -25.7333 -25.7275 -25.6603 -25.6555 -25.6389 -25.5864 -25.5796
   -11.0186 -10.9908 -10.5677 -10.5372 -10.4447 -10.4160 -10.2867 -10.2345
   -10.1332 -10.0971 -10.0712 -10.0371  -9.9897  -9.9226  -9.8793  -9.8311
    -9.7697  -9.6660  -9.6558  -9.6029  -9.3797  -9.3417  -9.2774  -9.0884
     1.3008   1.3681   1.7162   1.7979   1.8305   1.8705   1.9409   1.9739
     2.0595   2.1281   2.1829   2.2148   2.2489   2.2751   2.3208   2.4304
     2.4539   2.5054   2.5448   2.5816   2.6075   2.7043   2.7571   2.8203
     2.8936   2.9414   2.9556   2.9877   3.0679   3.1067   3.1467   3.1793
     3.3252   3.3509   3.4016   3.4408   3.4751   3.5505   3.6243   3.7198
     3.7661   3.8243   3.8573   3.9495   4.0940   4.1832   4.2493   4.2825
     4.3388   4.3970   4.4169   4.4551   4.5521   4.5807   4.6826   4.7215
     4.7795   4.8080   4.8628   4.9213   4.9634   5.0093   5.0700   5.0972
     5.1989   5.3032   5.3331   5.4410   5.5282   5.5836   5.8430   6.0261
     8.5429   8.6083   8.7989   8.8663   9.0796   9.1540   9.2044   9.2314
     9.2817   9.3009   9.3632   9.3901   9.4268   9.4574   9.4859   9.5322
     9.5899   9.6168   9.6185   9.6894   9.8699   9.9040   9.9162   9.9638
    10.0202  10.0447  10.0717  10.1190  10.3332  10.4934  11.3719  11.4142
    11.6764  11.7450  11.8288  11.9724  12.0382  12.0924  12.2273  12.2761
    12.3201  12.3585  12.4468  12.4906  12.5377  12.5828  12.6816  12.7593
    12.8625  13.1409  14.3583  14.6388  14.8477  15.4135  15.5548  15.6926
    15.8109  16.0019  16.0516  16.1875  16.2886  16.3457  17.3787  17.8243
    17.8749  17.9122  18.1364  18.2764  18.4351  18.5261  18.7667  19.1179
    19.1265  19.2439  19.3166  19.3832  19.4550  19.6611  19.7373  19.8597
    19.9021  20.1044  20.1219  20.2491  20.2658  20.3518  20.4423  20.5436
    20.6899  20.7492  20.8121  20.8809  21.1087  21.1608  21.3926  21.5409
    21.7086  21.7279  21.9224  22.1086  22.2158  22.4363  22.6967  22.8520
    22.8830  23.1800  23.2353  23.4733  23.5140  23.6735  23.7173  23.8684
    23.9428  24.1187  24.1880  24.2567  24.4301  24.5763  24.7414  24.7647
    24.9225  25.0237  25.1242  25.2634  25.3016  25.3998  25.4869  25.7314
    25.7591  25.9543  26.0229  26.0401  26.1776  26.3098  26.4947  26.5278
    26.5971  26.7637  26.8348  27.0008  27.1337  27.1774  27.4307  27.5096
    27.7492  27.8762  27.9770  28.0345  28.1404  28.3331  28.5218  28.6185
    28.6528  28.7893  28.9102  29.0757  29.1219  29.2954  29.4843  29.6217
    29.7279  29.8956  30.0443  30.1440  30.2434  30.4478  30.6160  30.7540
    30.9374  31.0427  31.5833  31.6176  32.0270  32.0635  32.1654  32.2601
    32.3042  32.4755  32.5918  32.7720  32.9935  33.1035  33.1366  33.3710
    33.4379  33.5811  33.7305  33.7417  33.8426  34.3137  34.3645  34.4711
    34.6832  34.8642  34.9676  35.0326  35.0921  35.2660  35.3599  35.4247
    35.4693  35.5922  35.6416  35.7392  35.8479  35.9147  35.9587  35.9782
    36.0849  36.1451  36.1819  36.2097  36.3171  36.4238  36.4763  36.5383
    36.6670  36.7396  36.7927  36.9261  37.0940  37.2200  37.2836  37.3664
    37.5021  37.6624  37.8290  37.9374  38.1842  38.2314  38.3044  38.4179
    38.5245  38.5621  38.6283  38.7867  38.8231  38.9234  39.0158  39.1553
    39.2816  39.4436  39.4963  39.6009  39.6418  39.7465  39.8260  39.8748
    39.9907  40.0174  40.1149  40.3114  40.3726  40.4183  40.5083  40.6458
    40.7237  40.8498  40.8719  40.9501  41.0287  41.1491  41.2677  41.2823
    41.4952  41.6809  41.7599  41.7837  41.7980  41.9183  42.0961  42.1491
    42.2320  42.3629  42.5406  42.6737  42.6773  42.8505  42.9197  42.9627
    43.0012  43.0846  43.1103  43.1872  43.2585  43.3186  43.3808  43.4639
    43.5640  43.5840  43.6762  43.7773  43.8883  43.9734  44.0122  44.2024
    44.2395  44.3492  44.3599  44.4723  44.5759  44.6305  44.6972  44.7527
    44.8711  45.0703  45.0877  45.1817  45.2684  45.3359  45.4513  45.6083
    45.7052  45.9148  45.9652  46.1955  46.2628  46.3884  46.4432  46.5055
    46.5328  46.5958  46.7592  46.8471  46.9531  47.1193  47.2419  47.3102
    47.3605  47.4452  47.6028  47.6788  47.8087  47.8736  47.8858  48.0498
    48.1127  48.2673  48.3453  48.4231  48.4797  48.5653  48.6845  48.7895
    48.8873  49.0025  49.0670  49.1051  49.1608  49.2091  49.2913  49.3620
    49.3674  49.4781  49.6092  49.6805  49.7156  49.7737  49.8878  49.9284
    50.0513  50.1025  50.1500  50.3478  50.4193  50.4497  50.6206  50.6396
    50.7519  50.7947  50.9557  50.9900  51.0297  51.1300  51.2146  51.2336
    51.2898  51.3430  51.4943  51.5744  51.6199  51.6534  51.6983  51.8628
    51.9487  51.9966  52.0151  52.1038  52.2694  52.3537  52.3651  52.4429
    52.4861  52.5212  52.6415  52.6748  52.7362  52.8231  52.9191  53.0303
    53.1019  53.1832  53.2414  53.2812  53.3643  53.4220  53.5211  53.6607
    53.7026  53.7828  53.9043  53.9764  54.0763  54.2011  54.2531  54.3727
    54.4521  54.4871  54.5888  54.6876  54.7398  54.8224  54.9150  54.9624
    55.0773  55.1852  55.4031  55.4890  55.6303  55.7189  55.7705  55.8106
    56.0618  56.1204  56.1854  56.2415  56.3314  56.4500  56.5697  56.6459
    56.7610  56.8674  56.8828  57.0036  57.0839  57.1612  57.3167  57.4135
    57.4569  57.5785  57.6801  57.7932  57.9586  58.0102  58.0823  58.1353
    58.2976  58.3391  58.4006  58.4580  58.5054  58.6559  58.7094  58.8477

     occupation numbers 
     1.0000   1.0000   1.0000   1.0000   1.0000   1.0000   1.0000   1.0000
     1.0000   1.0000   1.0000   1.0000   1.0000   1.0000   1.0000   1.0000
     1.0000   1.0000   1.0000   1.0000   1.0000   1.0000   1.0000   1.0000
     1.0000   1.0000   1.0000   1.0000   1.0000   1.0000   1.0000   1.0000
     1.0000   1.0000   1.0000   1.0000   1.0000   1.0000   1.0000   1.0000
     1.0000   1.0000   1.0000   1.0000   1.0000   1.0000   1.0000   1.0000
     1.0000   1.0000   1.0000   1.0000   1.0000   1.0000   1.0000   1.0000
     1.0000   1.0000   1.0000   1.0000   1.0000   1.0000   1.0000   1.0000
     1.0000   1.0000   1.0000   1.0000   1.0000   1.0000   1.0000   1.0000
     1.0000   1.0000   1.0000   1.0000   1.0000   1.0000   1.0000   1.0000
     1.0000   1.0000   1.0000   1.0000   1.0000   1.0000   1.0000   1.0000
     1.0000   1.0000   1.0000   1.0000   1.0000   1.0000   1.0000   1.0000
     1.0000   1.0000   1.0000   1.0000   1.0000   1.0000   1.0000   1.0000
     1.0000   1.0000   1.0000   1.0000   1.0000   1.0000   1.0000   1.0000
     1.0000   1.0000   1.0000   1.0000   1.0000   1.0000   1.0000   1.0000
     1.0000   1.0000   1.0000   1.0000   1.0000   1.0000   1.0000   1.0000
     1.0000   1.0000   1.0000   1.0000   1.0000   1.0000   1.0000   1.0000
     0.0000   0.0000   0.0000   0.0000   0.0000   0.0000   0.0000   0.0000
     0.0000   0.0000   0.0000   0.0000   0.0000   0.0000   0.0000   0.0000
     0.0000   0.0000   0.0000   0.0000   0.0000   0.0000   0.0000   0.0000
     0.0000   0.0000   0.0000   0.0000   0.0000   0.0000   0.0000   0.0000
     0.0000   0.0000   0.0000   0.0000   0.0000   0.0000   0.0000   0.0000
     0.0000   0.0000   0.0000   0.0000   0.0000   0.0000   0.0000   0.0000
     0.0000   0.0000   0.0000   0.0000   0.0000   0.0000   0.0000   0.0000
     0.0000   0.0000   0.0000   0.0000   0.0000   0.0000   0.0000   0.0000
     0.0000   0.0000   0.0000   0.0000   0.0000   0.0000   0.0000   0.0000
     0.0000   0.0000   0.0000   0.0000   0.0000   0.0000   0.0000   0.0000
     0.0000   0.0000   0.0000   0.0000   0.0000   0.0000   0.0000   0.0000
     0.0000   0.0000   0.0000   0.0000   0.0000   0.0000   0.0000   0.0000
     0.0000   0.0000   0.0000   0.0000   0.0000   0.0000   0.0000   0.0000
     0.0000   0.0000   0.0000   0.0000   0.0000   0.0000   0.0000   0.0000
     0.0000   0.0000   0.0000   0.0000   0.0000   0.0000   0.0000   0.0000
     0.0000   0.0000   0.0000   0.0000   0.0000   0.0000   0.0000   0.0000
     0.0000   0.0000   0.0000   0.0000   0.0000   0.0000   0.0000   0.0000
     0.0000   0.0000   0.0000   0.0000   0.0000   0.0000   0.0000   0.0000
     0.0000   0.0000   0.0000   0.0000   0.0000   0.0000   0.0000   0.0000
     0.0000   0.0000   0.0000   0.0000   0.0000   0.0000   0.0000   0.0000
     0.0000   0.0000   0.0000   0.0000   0.0000   0.0000   0.0000   0.0000
     0.0000   0.0000   0.0000   0.0000   0.0000   0.0000   0.0000   0.0000
     0.0000   0.0000   0.0000   0.0000   0.0000   0.0000   0.0000   0.0000
     0.0000   0.0000   0.0000   0.0000   0.0000   0.0000   0.0000   0.0000
     0.0000   0.0000   0.0000   0.0000   0.0000   0.0000   0.0000   0.0000
     0.0000   0.0000   0.0000   0.0000   0.0000   0.0000   0.0000   0.0000
     0.0000   0.0000   0.0000   0.0000   0.0000   0.0000   0.0000   0.0000
     0.0000   0.0000   0.0000   0.0000   0.0000   0.0000   0.0000   0.0000
     0.0000   0.0000   0.0000   0.0000   0.0000   0.0000   0.0000   0.0000
     0.0000   0.0000   0.0000   0.0000   0.0000   0.0000   0.0000   0.0000
     0.0000   0.0000   0.0000   0.0000   0.0000   0.0000   0.0000   0.0000
     0.0000   0.0000   0.0000   0.0000   0.0000   0.0000   0.0000   0.0000
     0.0000   0.0000   0.0000   0.0000   0.0000   0.0000   0.0000   0.0000
     0.0000   0.0000   0.0000   0.0000   0.0000   0.0000   0.0000   0.0000
     0.0000   0.0000   0.0000   0.0000   0.0000   0.0000   0.0000   0.0000
     0.0000   0.0000   0.0000   0.0000   0.0000   0.0000   0.0000   0.0000
     0.0000   0.0000   0.0000   0.0000   0.0000   0.0000   0.0000   0.0000
     0.0000   0.0000   0.0000   0.0000   0.0000   0.0000   0.0000   0.0000
     0.0000   0.0000   0.0000   0.0000   0.0000   0.0000   0.0000   0.0000
     0.0000   0.0000   0.0000   0.0000   0.0000   0.0000   0.0000   0.0000
     0.0000   0.0000   0.0000   0.0000   0.0000   0.0000   0.0000   0.0000
     0.0000   0.0000   0.0000   0.0000   0.0000   0.0000   0.0000   0.0000
     0.0000   0.0000   0.0000   0.0000   0.0000   0.0000   0.0000   0.0000
     0.0000   0.0000   0.0000   0.0000   0.0000   0.0000   0.0000   0.0000
     0.0000   0.0000   0.0000   0.0000   0.0000   0.0000   0.0000   0.0000
     0.0000   0.0000   0.0000   0.0000   0.0000   0.0000   0.0000   0.0000
     0.0000   0.0000   0.0000   0.0000   0.0000   0.0000   0.0000   0.0000
     0.0000   0.0000   0.0000   0.0000   0.0000   0.0000   0.0000   0.0000
     0.0000   0.0000   0.0000   0.0000   0.0000   0.0000   0.0000   0.0000
     0.0000   0.0000   0.0000   0.0000   0.0000   0.0000   0.0000   0.0000
     0.0000   0.0000   0.0000   0.0000   0.0000   0.0000   0.0000   0.0000
     0.0000   0.0000   0.0000   0.0000   0.0000   0.0000   0.0000   0.0000
     0.0000   0.0000   0.0000   0.0000   0.0000   0.0000   0.0000   0.0000
     0.0000   0.0000   0.0000   0.0000   0.0000   0.0000   0.0000   0.0000
     0.0000   0.0000   0.0000   0.0000   0.0000   0.0000   0.0000   0.0000
     0.0000   0.0000   0.0000   0.0000   0.0000   0.0000   0.0000   0.0000
     0.0000   0.0000   0.0000   0.0000   0.0000   0.0000   0.0000   0.0000
     0.0000   0.0000   0.0000   0.0000   0.0000   0.0000   0.0000   0.0000

          k = 0.0312 0.6676 0.2807 ( 49855 PWs)   bands (ev):

   -48.8554 -48.8553 -48.8287 -48.8283 -48.8008 -48.8005 -48.3551 -48.3481
   -48.3058 -48.2991 -26.5548 -26.5546 -26.3599 -26.3592 -26.2758 -26.2752
   -26.2633 -26.2628 -26.2276 -26.2258 -26.2108 -26.2095 -26.1692 -26.1689
   -26.1450 -26.1448 -26.0273 -26.0271 -26.0057 -25.9476 -25.7802 -25.7795
   -25.7535 -25.7333 -25.7275 -25.6603 -25.6555 -25.6389 -25.5864 -25.5796
   -11.0159 -10.9937 -10.5672 -10.5432 -10.4352 -10.4182 -10.2812 -10.2295
   -10.1457 -10.1176 -10.0577 -10.0422  -9.9709  -9.9233  -9.8875  -9.8297
    -9.7622  -9.6783  -9.6550  -9.5972  -9.3806  -9.3412  -9.2773  -9.0885
     1.3137   1.3497   1.7181   1.8186   1.8348   1.8896   1.9189   1.9598
     2.0531   2.1244   2.1653   2.1760   2.2281   2.3204   2.3822   2.4346
     2.4658   2.4798   2.5371   2.6049   2.6339   2.6784   2.7794   2.8288
     2.8580   2.8989   2.9514   2.9952   3.0451   3.0708   3.1599   3.2468
     3.2943   3.3601   3.4186   3.4253   3.4890   3.5022   3.6225   3.7073
     3.7862   3.8003   3.9414   4.0191   4.0761   4.1554   4.2059   4.3183
     4.3470   4.3712   4.4396   4.4669   4.5411   4.5857   4.6357   4.7325
     4.7730   4.7815   4.8355   4.9312   4.9856   5.0271   5.0400   5.1217
     5.1755   5.2944   5.3553   5.4402   5.5268   5.6019   5.8432   6.0259
     8.5454   8.6039   8.7766   8.8943   9.0734   9.1693   9.1817   9.2297
     9.2773   9.3253   9.3565   9.3719   9.4319   9.4665   9.5013   9.5130
     9.5926   9.6130   9.6264   9.6884   9.8643   9.8909   9.9350   9.9621
    10.0305  10.0368  10.0798  10.1102  10.3329  10.4914  11.3899  11.4292
    11.6578  11.7016  11.8585  11.9468  12.0337  12.1045  12.2281  12.2765
    12.3000  12.3504  12.4393  12.4792  12.5333  12.6560  12.6922  12.7615
    12.8767  13.1438  14.1596  14.8352  14.9848  15.3066  15.3725  15.6781
    15.9465  15.9989  16.0668  16.1966  16.2680  16.3636  17.3348  17.7156
    17.9046  18.0475  18.1100  18.3171  18.4281  18.6493  18.6759  18.9672
    19.1758  19.2042  19.3014  19.3514  19.5368  19.6160  19.7045  19.8402
    19.9653  20.0748  20.1210  20.2200  20.3109  20.3825  20.5272  20.6123
    20.7391  20.8279  20.8615  20.9241  21.0565  21.1085  21.2140  21.4032
    21.5825  21.7999  22.0522  22.1382  22.2603  22.3374  22.5998  22.8459
    23.0105  23.2451  23.2740  23.4045  23.4468  23.7233  23.7840  23.8877
    23.9429  24.0736  24.1644  24.4036  24.4238  24.5433  24.6352  24.8210
    24.8640  25.0115  25.0684  25.2506  25.2768  25.3469  25.5363  25.6886
    25.8034  25.9445  25.9881  26.0827  26.2696  26.3471  26.4386  26.4554
    26.5867  26.7821  26.9032  27.0845  27.1144  27.3531  27.4413  27.5036
    27.7301  27.8671  27.9669  28.1048  28.1416  28.2384  28.3803  28.4753
    28.6806  28.7944  28.8384  29.0031  29.2495  29.3816  29.5074  29.5776
    29.6096  29.9449  30.0500  30.0942  30.3304  30.4137  30.4937  30.8385
    30.9557  31.3744  31.5455  31.5871  31.7828  32.0423  32.1626  32.1924
    32.4419  32.6648  32.7253  32.7718  32.8375  33.0573  33.1936  33.3619
    33.4599  33.5773  33.6773  33.8874  33.9772  34.1853  34.2712  34.5775
    34.6193  34.7895  34.8954  35.0193  35.1446  35.1580  35.2812  35.3878
    35.5092  35.5395  35.6398  35.6853  35.7153  35.7998  35.8346  35.9586
    36.0103  36.0216  36.2210  36.3034  36.4358  36.5046  36.5633  36.6608
    36.7684  36.7909  36.9158  36.9668  37.0857  37.1814  37.2744  37.4763
    37.6597  37.6983  37.8268  37.9215  37.9972  38.1728  38.2408  38.4231
    38.4260  38.5168  38.5716  38.8154  38.9096  38.9595  39.0472  39.0879
    39.2339  39.3082  39.4869  39.6380  39.6943  39.7825  39.8574  39.9266
    39.9597  40.0747  40.1729  40.3500  40.4901  40.5308  40.6741  40.7297
    40.8460  40.8954  41.0107  41.0687  41.1030  41.2034  41.2708  41.3717
    41.5215  41.5829  41.6795  41.7410  41.8124  41.9693  41.9718  42.1154
    42.1527  42.3345  42.3527  42.4023  42.4182  42.5317  42.6035  42.6888
    42.8388  42.9372  43.1018  43.1802  43.1935  43.3301  43.3935  43.4520
    43.5510  43.6589  43.7024  43.7835  43.8551  43.9676  44.1124  44.1334
    44.2496  44.3771  44.4685  44.5357  44.6007  44.6863  44.7757  44.8140
    45.0268  45.1082  45.1951  45.2185  45.3796  45.5659  45.5906  45.6741
    45.7728  46.0354  46.1377  46.1999  46.2294  46.4068  46.4803  46.5112
    46.6691  46.7315  46.8544  46.9461  47.0194  47.1334  47.1766  47.2746
    47.4007  47.4739  47.5364  47.6028  47.7425  47.8329  47.8816  47.9927
    48.0847  48.2446  48.3426  48.4011  48.4189  48.5163  48.5898  48.6666
    48.8033  48.8427  48.9345  49.0118  49.1416  49.1815  49.2390  49.3487
    49.3656  49.4798  49.5377  49.6149  49.6965  49.7704  49.8762  49.9644
    50.0096  50.1353  50.1836  50.2661  50.4235  50.4476  50.5276  50.6600
    50.7284  50.7457  50.8288  50.8478  50.9480  51.0714  51.1949  51.2098
    51.2928  51.4013  51.5015  51.5872  51.6935  51.7629  51.7861  51.8548
    51.9713  52.0079  52.0203  52.1465  52.1880  52.2412  52.3907  52.4362
    52.5231  52.5734  52.7426  52.7826  52.8621  52.8759  53.0086  53.1077
    53.1939  53.2730  53.3434  53.4398  53.4883  53.5165  53.5488  53.6264
    53.7638  53.8510  53.9660  54.0186  54.1243  54.1513  54.2793  54.3541
    54.4165  54.4449  54.5080  54.7074  54.7958  54.9299  54.9628  55.1218
    55.1921  55.2565  55.2906  55.4601  55.5981  55.6035  55.7228  55.8858
    55.9759  56.0038  56.1074  56.2274  56.2907  56.3648  56.5130  56.6736
    56.7213  56.8070  56.8453  56.9684  57.0624  57.0958  57.1742  57.2200
    57.3769  57.4359  57.6523  57.7167  57.9153  57.9923  58.1086  58.1641
    58.2683  58.3026  58.3512  58.4358  58.5287  58.5761  58.6590  58.7702

     occupation numbers 
     1.0000   1.0000   1.0000   1.0000   1.0000   1.0000   1.0000   1.0000
     1.0000   1.0000   1.0000   1.0000   1.0000   1.0000   1.0000   1.0000
[...]
    53.7699  53.8198  53.8892  53.9602  54.0825  54.1198  54.1885  54.2202
    54.3462  54.4560  54.5404  54.5715  54.6229  54.7168  54.8744  54.9338
    55.0044  55.0717  55.1327  55.2525  55.3799  55.6118  55.6530  55.7955
    55.8185  55.8666  56.0405  56.0981  56.2076  56.2653  56.3919  56.4678
    56.5042  56.5776  56.7765  56.8875  56.9668  57.0688  57.1017  57.1855
    57.2422  57.2751  57.4671  57.5234  57.6093  57.6927  57.9291  58.0023
    58.0415  58.0962  58.1962  58.3208  58.4029  58.4844  58.5512  58.6373

     occupation numbers 
     1.0000   1.0000   1.0000   1.0000   1.0000   1.0000   1.0000   1.0000
     1.0000   1.0000   1.0000   1.0000   1.0000   1.0000   1.0000   1.0000
     1.0000   1.0000   1.0000   1.0000   1.0000   1.0000   1.0000   1.0000
     1.0000   1.0000   1.0000   1.0000   1.0000   1.0000   1.0000   1.0000
     1.0000   1.0000   1.0000   1.0000   1.0000   1.0000   1.0000   1.0000
     1.0000   1.0000   1.0000   1.0000   1.0000   1.0000   1.0000   1.0000
     1.0000   1.0000   1.0000   1.0000   1.0000   1.0000   1.0000   1.0000
     1.0000   1.0000   1.0000   1.0000   1.0000   1.0000   1.0000   1.0000
     1.0000   1.0000   1.0000   1.0000   1.0000   1.0000   1.0000   1.0000
     1.0000   1.0000   1.0000   1.0000   1.0000   1.0000   1.0000   1.0000
     1.0000   1.0000   1.0000   1.0000   1.0000   1.0000   1.0000   1.0000
     1.0000   1.0000   1.0000   1.0000   1.0000   1.0000   1.0000   1.0000
     1.0000   1.0000   1.0000   1.0000   1.0000   1.0000   1.0000   1.0000
     1.0000   1.0000   1.0000   1.0000   1.0000   1.0000   1.0000   1.0000
     1.0000   1.0000   1.0000   1.0000   1.0000   1.0000   1.0000   1.0000
     1.0000   1.0000   1.0000   1.0000   1.0000   1.0000   1.0000   1.0000
     1.0000   1.0000   1.0000   1.0000   1.0000   1.0000   1.0000   1.0000
     0.0000   0.0000   0.0000   0.0000   0.0000   0.0000   0.0000   0.0000
     0.0000   0.0000   0.0000   0.0000   0.0000   0.0000   0.0000   0.0000
     0.0000   0.0000   0.0000   0.0000   0.0000   0.0000   0.0000   0.0000
     0.0000   0.0000   0.0000   0.0000   0.0000   0.0000   0.0000   0.0000
     0.0000   0.0000   0.0000   0.0000   0.0000   0.0000   0.0000   0.0000
     0.0000   0.0000   0.0000   0.0000   0.0000   0.0000   0.0000   0.0000
     0.0000   0.0000   0.0000   0.0000   0.0000   0.0000   0.0000   0.0000
     0.0000   0.0000   0.0000   0.0000   0.0000   0.0000   0.0000   0.0000
     0.0000   0.0000   0.0000   0.0000   0.0000   0.0000   0.0000   0.0000
     0.0000   0.0000   0.0000   0.0000   0.0000   0.0000   0.0000   0.0000
     0.0000   0.0000   0.0000   0.0000   0.0000   0.0000   0.0000   0.0000
     0.0000   0.0000   0.0000   0.0000   0.0000   0.0000   0.0000   0.0000
     0.0000   0.0000   0.0000   0.0000   0.0000   0.0000   0.0000   0.0000
     0.0000   0.0000   0.0000   0.0000   0.0000   0.0000   0.0000   0.0000
     0.0000   0.0000   0.0000   0.0000   0.0000   0.0000   0.0000   0.0000
     0.0000   0.0000   0.0000   0.0000   0.0000   0.0000   0.0000   0.0000
     0.0000   0.0000   0.0000   0.0000   0.0000   0.0000   0.0000   0.0000
     0.0000   0.0000   0.0000   0.0000   0.0000   0.0000   0.0000   0.0000
     0.0000   0.0000   0.0000   0.0000   0.0000   0.0000   0.0000   0.0000
     0.0000   0.0000   0.0000   0.0000   0.0000   0.0000   0.0000   0.0000
     0.0000   0.0000   0.0000   0.0000   0.0000   0.0000   0.0000   0.0000
     0.0000   0.0000   0.0000   0.0000   0.0000   0.0000   0.0000   0.0000
     0.0000   0.0000   0.0000   0.0000   0.0000   0.0000   0.0000   0.0000
     0.0000   0.0000   0.0000   0.0000   0.0000   0.0000   0.0000   0.0000
     0.0000   0.0000   0.0000   0.0000   0.0000   0.0000   0.0000   0.0000
     0.0000   0.0000   0.0000   0.0000   0.0000   0.0000   0.0000   0.0000
     0.0000   0.0000   0.0000   0.0000   0.0000   0.0000   0.0000   0.0000
     0.0000   0.0000   0.0000   0.0000   0.0000   0.0000   0.0000   0.0000
     0.0000   0.0000   0.0000   0.0000   0.0000   0.0000   0.0000   0.0000
     0.0000   0.0000   0.0000   0.0000   0.0000   0.0000   0.0000   0.0000
     0.0000   0.0000   0.0000   0.0000   0.0000   0.0000   0.0000   0.0000
     0.0000   0.0000   0.0000   0.0000   0.0000   0.0000   0.0000   0.0000
     0.0000   0.0000   0.0000   0.0000   0.0000   0.0000   0.0000   0.0000
     0.0000   0.0000   0.0000   0.0000   0.0000   0.0000   0.0000   0.0000
     0.0000   0.0000   0.0000   0.0000   0.0000   0.0000   0.0000   0.0000
     0.0000   0.0000   0.0000   0.0000   0.0000   0.0000   0.0000   0.0000
     0.0000   0.0000   0.0000   0.0000   0.0000   0.0000   0.0000   0.0000
     0.0000   0.0000   0.0000   0.0000   0.0000   0.0000   0.0000   0.0000
     0.0000   0.0000   0.0000   0.0000   0.0000   0.0000   0.0000   0.0000
     0.0000   0.0000   0.0000   0.0000   0.0000   0.0000   0.0000   0.0000
     0.0000   0.0000   0.0000   0.0000   0.0000   0.0000   0.0000   0.0000
     0.0000   0.0000   0.0000   0.0000   0.0000   0.0000   0.0000   0.0000
     0.0000   0.0000   0.0000   0.0000   0.0000   0.0000   0.0000   0.0000
     0.0000   0.0000   0.0000   0.0000   0.0000   0.0000   0.0000   0.0000
     0.0000   0.0000   0.0000   0.0000   0.0000   0.0000   0.0000   0.0000
     0.0000   0.0000   0.0000   0.0000   0.0000   0.0000   0.0000   0.0000
     0.0000   0.0000   0.0000   0.0000   0.0000   0.0000   0.0000   0.0000
     0.0000   0.0000   0.0000   0.0000   0.0000   0.0000   0.0000   0.0000
     0.0000   0.0000   0.0000   0.0000   0.0000   0.0000   0.0000   0.0000
     0.0000   0.0000   0.0000   0.0000   0.0000   0.0000   0.0000   0.0000
     0.0000   0.0000   0.0000   0.0000   0.0000   0.0000   0.0000   0.0000
     0.0000   0.0000   0.0000   0.0000   0.0000   0.0000   0.0000   0.0000
     0.0000   0.0000   0.0000   0.0000   0.0000   0.0000   0.0000   0.0000
     0.0000   0.0000   0.0000   0.0000   0.0000   0.0000   0.0000   0.0000
     0.0000   0.0000   0.0000   0.0000   0.0000   0.0000   0.0000   0.0000
     0.0000   0.0000   0.0000   0.0000   0.0000   0.0000   0.0000   0.0000
     0.0000   0.0000   0.0000   0.0000   0.0000   0.0000   0.0000   0.0000
     0.0000   0.0000   0.0000   0.0000   0.0000   0.0000   0.0000   0.0000

          k = 0.7812 1.3892 0.2807 ( 49808 PWs)   bands (ev):

   -48.8595 -48.8593 -48.8255 -48.8251 -48.7999 -48.7996 -48.3551 -48.3481
   -48.3058 -48.2991 -26.5749 -26.5749 -26.3775 -26.3770 -26.3064 -26.3061
   -26.2760 -26.2753 -26.2105 -26.2075 -26.1963 -26.1959 -26.1530 -26.1527
   -26.0754 -26.0749 -26.0608 -26.0605 -26.0053 -25.9481 -25.7798 -25.7794
   -25.7544 -25.7335 -25.7272 -25.6604 -25.6555 -25.6389 -25.5863 -25.5797
   -11.0964 -11.0620 -10.5531 -10.5043 -10.4144 -10.3975 -10.2844 -10.2069
   -10.1633 -10.1512 -10.1172 -10.0734  -9.9850  -9.9104  -9.8108  -9.7489
    -9.7341  -9.6792  -9.6513  -9.5879  -9.3820  -9.3537  -9.2413  -9.1120
     1.2193   1.2539   1.7015   1.7655   1.8063   1.8484   1.8754   1.9366
     2.0241   2.0544   2.0802   2.1994   2.2653   2.2898   2.3374   2.3778
     2.4278   2.4720   2.5057   2.6133   2.6485   2.6730   2.7418   2.8034
     2.8545   2.8829   2.9220   2.9432   3.0364   3.0616   3.1708   3.2790
     3.3165   3.4011   3.4746   3.5218   3.6195   3.6698   3.7554   3.7963
     3.8625   3.9143   4.0033   4.0739   4.1030   4.1827   4.2716   4.3528
     4.3834   4.4198   4.4592   4.5008   4.5153   4.5941   4.5963   4.6296
     4.7207   4.8010   4.8233   4.8884   4.9143   5.0300   5.0956   5.1181
     5.2617   5.2774   5.3075   5.3878   5.4906   5.6275   5.9290   6.0131
     8.5705   8.6156   8.6948   8.7412   9.0845   9.0940   9.1358   9.2001
     9.2635   9.3000   9.3694   9.4111   9.4395   9.4894   9.5251   9.5353
     9.5891   9.6096   9.6392   9.6803   9.8734   9.8939   9.9293   9.9647
    10.0150  10.0320  10.0658  10.1148  10.3979  10.4184  11.5326  11.5807
    11.7476  11.8038  11.9588  12.0147  12.0409  12.0982  12.1753  12.2041
    12.3146  12.3566  12.4261  12.5033  12.5710  12.5848  12.7022  12.7918
    12.9600  12.9966  14.0479  14.4468  15.2734  15.3783  15.4295  15.6817
    15.8037  15.8245  16.0193  16.1343  16.2495  16.3393  17.2322  17.3808
    17.7223  17.8185  18.0072  18.2076  18.2874  18.3655  18.5056  18.6991
    19.0746  19.2699  19.4554  19.5445  19.6978  19.7124  19.8271  19.9531
    20.0190  20.0790  20.2428  20.3523  20.3975  20.5160  20.5662  20.6099
    20.6315  20.7819  20.8812  21.0765  21.1393  21.2540  21.4284  21.5803
    21.6673  21.8163  21.9231  22.0232  22.1736  22.2356  22.5016  22.9451
    23.0437  23.1210  23.2890  23.3989  23.4547  23.5045  23.7880  23.9330
    23.9877  24.1701  24.2716  24.4029  24.4675  24.6884  24.7299  24.8779
    25.0085  25.0453  25.1496  25.2106  25.3136  25.4826  25.5960  25.6259
    25.7115  25.8144  26.0159  26.0546  26.2606  26.4054  26.4638  26.5145
    26.7366  26.8307  26.9208  26.9840  27.1425  27.3856  27.4802  27.5686
    27.7172  27.8139  27.8909  27.9681  28.1033  28.2172  28.3144  28.6126
    28.6524  28.8133  28.9206  29.0761  29.2172  29.3206  29.3494  29.5076
    29.7745  29.8983  30.0335  30.3119  30.3685  30.4976  30.8716  31.0509
    31.2372  31.4337  31.5427  31.7478  31.7787  31.8627  32.1075  32.1815
    32.3932  32.5800  32.6978  32.8716  33.0794  33.0904  33.2463  33.5115
    33.5771  33.6234  33.7423  33.7884  33.9026  34.0509  34.0632  34.1993
    34.2814  34.3565  34.4359  34.6402  34.9021  34.9784  35.0762  35.2311
    35.3456  35.4677  35.5711  35.6718  35.7286  35.7958  35.8546  35.9356
    36.0110  36.1488  36.1675  36.2126  36.3297  36.4436  36.6162  36.7540
    36.8319  36.9972  37.0331  37.1324  37.1673  37.2216  37.3485  37.3977
    37.4961  37.6799  37.8847  37.9880  38.1216  38.1969  38.2616  38.3080
    38.4445  38.4845  38.5832  38.7079  38.8549  38.9623  39.0928  39.1779
    39.3652  39.4218  39.6124  39.6437  39.7061  39.8868  39.9306  39.9779
    40.0593  40.2504  40.3221  40.3583  40.3833  40.5562  40.6286  40.7212
    40.8641  40.9316  41.0271  41.0911  41.1229  41.2477  41.3449  41.3956
    41.4562  41.5265  41.6526  41.7803  41.8979  41.9698  42.0776  42.1513
    42.2182  42.3395  42.4065  42.4784  42.5807  42.6301  42.7091  42.8627
    42.8989  43.0265  43.0776  43.1199  43.1826  43.2684  43.3700  43.4223
    43.5191  43.5385  43.6570  43.6948  43.8733  43.9428  44.0226  44.1258
    44.2210  44.2654  44.3428  44.4870  44.5325  44.6190  44.6468  44.7972
    44.9461  45.0292  45.0640  45.1197  45.1713  45.2143  45.4364  45.5268
    45.6744  45.7253  45.7996  45.9706  46.0886  46.2229  46.2854  46.3381
    46.4450  46.5318  46.6799  46.7306  46.7906  46.9985  47.0698  47.2897
    47.3448  47.6215  47.6817  47.7407  47.8167  47.8673  48.0164  48.0764
    48.1739  48.2312  48.3735  48.4854  48.5467  48.6202  48.6580  48.7359
    48.9060  48.9421  49.1081  49.2000  49.2955  49.3306  49.4396  49.5119
    49.6115  49.6502  49.8311  49.9357  49.9700  50.0262  50.1144  50.2037
    50.3540  50.3817  50.3982  50.5084  50.6130  50.6361  50.7260  50.8346
    50.9906  51.0344  51.1132  51.1173  51.1850  51.2266  51.3665  51.4392
    51.4528  51.5234  51.5758  51.6294  51.7184  51.8289  51.8850  51.9609
    52.0203  52.0659  52.0879  52.1318  52.2040  52.3935  52.4298  52.4895
    52.5675  52.6376  52.7299  52.7700  52.8308  52.8949  52.9635  53.0042
    53.0286  53.1315  53.2091  53.3452  53.4563  53.4782  53.5599  53.6845
    53.7745  53.8020  53.8832  53.9166  53.9677  54.0707  54.1383  54.2627
    54.3084  54.3530  54.4995  54.5811  54.6784  54.6827  54.7938  54.9102
    54.9821  55.0010  55.1500  55.2859  55.3670  55.4462  55.5282  55.7776
    55.8763  55.9629  56.0803  56.0907  56.2086  56.3274  56.4193  56.5577
    56.6142  56.6891  56.7395  56.8717  56.9206  56.9991  57.0494  57.2254
    57.2689  57.3552  57.4333  57.5965  57.7421  57.7619  57.8579  57.9638
    58.0513  58.1334  58.2436  58.3208  58.4106  58.4505  58.5158  58.5877

     occupation numbers 
     1.0000   1.0000   1.0000   1.0000   1.0000   1.0000   1.0000   1.0000
     1.0000   1.0000   1.0000   1.0000   1.0000   1.0000   1.0000   1.0000
     1.0000   1.0000   1.0000   1.0000   1.0000   1.0000   1.0000   1.0000
     1.0000   1.0000   1.0000   1.0000   1.0000   1.0000   1.0000   1.0000
     1.0000   1.0000   1.0000   1.0000   1.0000   1.0000   1.0000   1.0000
     1.0000   1.0000   1.0000   1.0000   1.0000   1.0000   1.0000   1.0000
     1.0000   1.0000   1.0000   1.0000   1.0000   1.0000   1.0000   1.0000
     1.0000   1.0000   1.0000   1.0000   1.0000   1.0000   1.0000   1.0000
     1.0000   1.0000   1.0000   1.0000   1.0000   1.0000   1.0000   1.0000
     1.0000   1.0000   1.0000   1.0000   1.0000   1.0000   1.0000   1.0000
     1.0000   1.0000   1.0000   1.0000   1.0000   1.0000   1.0000   1.0000
     1.0000   1.0000   1.0000   1.0000   1.0000   1.0000   1.0000   1.0000
     1.0000   1.0000   1.0000   1.0000   1.0000   1.0000   1.0000   1.0000
     1.0000   1.0000   1.0000   1.0000   1.0000   1.0000   1.0000   1.0000
     1.0000   1.0000   1.0000   1.0000   1.0000   1.0000   1.0000   1.0000
     1.0000   1.0000   1.0000   1.0000   1.0000   1.0000   1.0000   1.0000
     1.0000   1.0000   1.0000   1.0000   1.0000   1.0000   1.0000   1.0000
     0.0000   0.0000   0.0000   0.0000   0.0000   0.0000   0.0000   0.0000
     0.0000   0.0000   0.0000   0.0000   0.0000   0.0000   0.0000   0.0000
     0.0000   0.0000   0.0000   0.0000   0.0000   0.0000   0.0000   0.0000
     0.0000   0.0000   0.0000   0.0000   0.0000   0.0000   0.0000   0.0000
     0.0000   0.0000   0.0000   0.0000   0.0000   0.0000   0.0000   0.0000
     0.0000   0.0000   0.0000   0.0000   0.0000   0.0000   0.0000   0.0000
     0.0000   0.0000   0.0000   0.0000   0.0000   0.0000   0.0000   0.0000
     0.0000   0.0000   0.0000   0.0000   0.0000   0.0000   0.0000   0.0000
     0.0000   0.0000   0.0000   0.0000   0.0000   0.0000   0.0000   0.0000
     0.0000   0.0000   0.0000   0.0000   0.0000   0.0000   0.0000   0.0000
     0.0000   0.0000   0.0000   0.0000   0.0000   0.0000   0.0000   0.0000
     0.0000   0.0000   0.0000   0.0000   0.0000   0.0000   0.0000   0.0000
     0.0000   0.0000   0.0000   0.0000   0.0000   0.0000   0.0000   0.0000
     0.0000   0.0000   0.0000   0.0000   0.0000   0.0000   0.0000   0.0000
     0.0000   0.0000   0.0000   0.0000   0.0000   0.0000   0.0000   0.0000
     0.0000   0.0000   0.0000   0.0000   0.0000   0.0000   0.0000   0.0000
     0.0000   0.0000   0.0000   0.0000   0.0000   0.0000   0.0000   0.0000
     0.0000   0.0000   0.0000   0.0000   0.0000   0.0000   0.0000   0.0000
     0.0000   0.0000   0.0000   0.0000   0.0000   0.0000   0.0000   0.0000
     0.0000   0.0000   0.0000   0.0000   0.0000   0.0000   0.0000   0.0000
     0.0000   0.0000   0.0000   0.0000   0.0000   0.0000   0.0000   0.0000
     0.0000   0.0000   0.0000   0.0000   0.0000   0.0000   0.0000   0.0000
     0.0000   0.0000   0.0000   0.0000   0.0000   0.0000   0.0000   0.0000
     0.0000   0.0000   0.0000   0.0000   0.0000   0.0000   0.0000   0.0000
     0.0000   0.0000   0.0000   0.0000   0.0000   0.0000   0.0000   0.0000
     0.0000   0.0000   0.0000   0.0000   0.0000   0.0000   0.0000   0.0000
     0.0000   0.0000   0.0000   0.0000   0.0000   0.0000   0.0000   0.0000
     0.0000   0.0000   0.0000   0.0000   0.0000   0.0000   0.0000   0.0000
     0.0000   0.0000   0.0000   0.0000   0.0000   0.0000   0.0000   0.0000
     0.0000   0.0000   0.0000   0.0000   0.0000   0.0000   0.0000   0.0000
     0.0000   0.0000   0.0000   0.0000   0.0000   0.0000   0.0000   0.0000
     0.0000   0.0000   0.0000   0.0000   0.0000   0.0000   0.0000   0.0000
     0.0000   0.0000   0.0000   0.0000   0.0000   0.0000   0.0000   0.0000
     0.0000   0.0000   0.0000   0.0000   0.0000   0.0000   0.0000   0.0000
     0.0000   0.0000   0.0000   0.0000   0.0000   0.0000   0.0000   0.0000
     0.0000   0.0000   0.0000   0.0000   0.0000   0.0000   0.0000   0.0000
     0.0000   0.0000   0.0000   0.0000   0.0000   0.0000   0.0000   0.0000
     0.0000   0.0000   0.0000   0.0000   0.0000   0.0000   0.0000   0.0000
     0.0000   0.0000   0.0000   0.0000   0.0000   0.0000   0.0000   0.0000
     0.0000   0.0000   0.0000   0.0000   0.0000   0.0000   0.0000   0.0000
     0.0000   0.0000   0.0000   0.0000   0.0000   0.0000   0.0000   0.0000
     0.0000   0.0000   0.0000   0.0000   0.0000   0.0000   0.0000   0.0000
     0.0000   0.0000   0.0000   0.0000   0.0000   0.0000   0.0000   0.0000
     0.0000   0.0000   0.0000   0.0000   0.0000   0.0000   0.0000   0.0000
     0.0000   0.0000   0.0000   0.0000   0.0000   0.0000   0.0000   0.0000
     0.0000   0.0000   0.0000   0.0000   0.0000   0.0000   0.0000   0.0000
     0.0000   0.0000   0.0000   0.0000   0.0000   0.0000   0.0000   0.0000
     0.0000   0.0000   0.0000   0.0000   0.0000   0.0000   0.0000   0.0000
     0.0000   0.0000   0.0000   0.0000   0.0000   0.0000   0.0000   0.0000
     0.0000   0.0000   0.0000   0.0000   0.0000   0.0000   0.0000   0.0000
     0.0000   0.0000   0.0000   0.0000   0.0000   0.0000   0.0000   0.0000
     0.0000   0.0000   0.0000   0.0000   0.0000   0.0000   0.0000   0.0000
     0.0000   0.0000   0.0000   0.0000   0.0000   0.0000   0.0000   0.0000
     0.0000   0.0000   0.0000   0.0000   0.0000   0.0000   0.0000   0.0000
     0.0000   0.0000   0.0000   0.0000   0.0000   0.0000   0.0000   0.0000
     0.0000   0.0000   0.0000   0.0000   0.0000   0.0000   0.0000   0.0000
     0.0000   0.0000   0.0000   0.0000   0.0000   0.0000   0.0000   0.0000
     0.0000   0.0000   0.0000   0.0000   0.0000   0.0000   0.0000   0.0000

     highest occupied, lowest unoccupied level (ev):     6.0266    8.1777

     Writing output data file system.save
 
     init_run     :      0.64s CPU      0.75s WALL (       1 calls)
     electrons    :    338.98s CPU    341.02s WALL (       1 calls)

     Called by init_run:
     wfcinit      :      0.00s CPU      0.06s WALL (       1 calls)
     wfcinit:atom :      0.09s CPU      0.16s WALL (       1 calls)
     wfcinit:wfcr :     14.38s CPU     14.56s WALL (       1 calls)
     potinit      :      0.15s CPU      0.19s WALL (       1 calls)

     Called by electrons:
     c_bands      :    338.97s CPU    340.48s WALL (       1 calls)
     v_of_rho     :      0.04s CPU      0.04s WALL (       1 calls)
     v_h          :      0.02s CPU      0.02s WALL (       1 calls)
     v_xc         :      0.02s CPU      0.03s WALL (       1 calls)

     Called by c_bands:
     init_us_2    :      0.03s CPU      0.07s WALL (       1 calls)
     cegterg      :    323.86s CPU    325.01s WALL (       1 calls)

     Called by sum_band:

     Called by *egterg:
     h_psi        :     88.29s CPU     88.53s WALL (      18 calls)
     g_psi        :      0.67s CPU      0.67s WALL (      16 calls)
     cdiaghg      :    106.09s CPU    106.15s WALL (      17 calls)
     cegterg:over :     62.34s CPU     62.36s WALL (      16 calls)
     cegterg:upda :     45.97s CPU     46.02s WALL (      16 calls)
     cegterg:last :     26.06s CPU     26.08s WALL (       3 calls)

     Called by h_psi:
     h_psi:pot    :     87.58s CPU     87.75s WALL (      18 calls)
     h_psi:calbec :      9.84s CPU      9.85s WALL (      18 calls)
     vloc_psi     :     67.26s CPU     67.41s WALL (      18 calls)
     add_vuspsi   :     10.48s CPU     10.49s WALL (      18 calls)

     General routines
     calbec       :      9.84s CPU      9.85s WALL (      18 calls)
     fft          :      0.03s CPU      0.04s WALL (       4 calls)
     fftw         :     55.61s CPU     55.57s WALL (   12102 calls)
     davcio       :      0.00s CPU      0.56s WALL (       2 calls)
 
     Parallel routines
     fft_scatter  :     15.33s CPU     15.30s WALL (   12106 calls)
 
     PWSCF        :  6m55.12s CPU     7m58.05s WALL

 
   This run was terminated on:  21: 5: 4  16Jul2017            

=------------------------------------------------------------------------------=
   JOB DONE.
=------------------------------------------------------------------------------=
