
     Program PWSCF v.6.1 (svn rev. 13369) starts on  1Jun2017 at  1:28:12 

     This program is part of the open-source Quantum ESPRESSO suite
     for quantum simulation of materials; please cite
         "P. Giannozzi et al., J. Phys.:Condens. Matter 21 395502 (2009);
          URL http://www.quantum-espresso.org", 
     in publications or presentations arising from this work. More details at
     http://www.quantum-espresso.org/quote

     Parallel version (MPI & OpenMP), running on      36 processor cores
     Number of MPI processes:                36
     Threads/MPI process:                     1
     K-points division:     npool     =       4
     R & G space division:  proc/nbgrp/npool/nimage =       9
     Waiting for input...
     Reading input from standard input
Warning: card &IONS ignored
Warning: card / ignored
     Message from routine read_cards :
     DEPRECATED: no units specified in CELL_PARAMETERS card

     Current dimensions of program PWSCF are:
     Max number of different atomic species (ntypx) = 10
     Max number of k-points (npk) =  40000
     Max angular momentum in pseudopotentials (lmaxx) =  3

     Atomic positions and unit cell read from directory:
     ./Out/system.save/
 
     Message from routine readpp:
     file ./Out/system.save/ti.fhi.UPF not found
     Message from routine readpp:
     file ./Out/system.save/ti.fhi.UPF not found
     Message from routine readpp:
     file ./Out/system.save/08-o.lda.fhi.UPF not found
               file 08-o.lda.fhi.UPF: wavefunction(s)  3d renormalized
     Message from routine readpp:
     file ./Out/system.save/03-li.lda.fhi.UPF not found
               file 03-li.lda.fhi.UPF: wavefunction(s)  p f renormalized

     Subspace diagonalization in iterative solution of the eigenvalue problem:
     a serial algorithm will be used

 
     Parallelization info
     --------------------
     sticks:   dense  smooth     PW     G-vecs:    dense   smooth      PW
     Min         380     380    114                44220    44220    7176
     Max         381     381    115                44237    44237    7185
     Sum        3427    3427   1027               398099   398099   64613
 


     bravais-lattice index     =            0
     lattice parameter (alat)  =      11.1683  a.u.
     unit-cell volume          =    2946.5845 (a.u.)^3
     number of atoms/cell      =           48
     number of atomic types    =            4
     number of electrons       =       278.00
     number of Kohn-Sham states=          600
     kinetic-energy cutoff     =     100.0000  Ry
     charge density cutoff     =     400.0000  Ry
     Exchange-correlation      = SLA  PW   NOGX NOGC ( 1  4  0  0 0 0)

     celldm(1)=  11.168281  celldm(2)=   0.000000  celldm(3)=   0.000000
     celldm(4)=   0.000000  celldm(5)=   0.000000  celldm(6)=   0.000000

     crystal axes: (cart. coord. in units of alat)
               a(1) = (   1.000000   0.000000   0.000000 )  
               a(2) = (  -0.500000   0.866025   0.000000 )  
               a(3) = (   0.000000   0.000000   2.442470 )  

     reciprocal axes: (cart. coord. in units 2 pi/alat)
               b(1) = (  1.000000  0.577350  0.000000 )  
               b(2) = (  0.000000  1.154701  0.000000 )  
               b(3) = (  0.000000  0.000000  0.409422 )  


     PseudoPot. # 1 for Ti read from file:
     /hpcgpfs01/scratch/mtopsakal/paradox/OCEAN-1.2.0-IC/ti.fhi.UPF
     MD5 check sum: c4bdc3654679b6e653b810d3fa8e26c3
     Pseudo is Norm-conserving, Zval = 12.0
     Generated using FHI98PP, converted with fhi2upf.x v.5.0.2
     Using radial grid of 1156 points,  2 beta functions with: 
                l(1) =   0
                l(2) =   2

     PseudoPot. # 2 for Ti read from file:
     /hpcgpfs01/scratch/mtopsakal/paradox/OCEAN-1.2.0-IC/ti.fhi.UPF
     MD5 check sum: c4bdc3654679b6e653b810d3fa8e26c3
     Pseudo is Norm-conserving, Zval = 12.0
     Generated using FHI98PP, converted with fhi2upf.x v.5.0.2
     Using radial grid of 1156 points,  2 beta functions with: 
                l(1) =   0
                l(2) =   2

     PseudoPot. # 3 for O  read from file:
     /hpcgpfs01/scratch/mtopsakal/paradox/OCEAN-1.2.0-IC/08-o.lda.fhi.UPF
     MD5 check sum: c35f640a64c00feec7ce3b63cda5293b
     Pseudo is Norm-conserving, Zval =  6.0
     Generated by new atomic code, or converted to UPF format
     Using radial grid of  473 points,  3 beta functions with: 
                l(1) =   0
                l(2) =   1
                l(3) =   3

     PseudoPot. # 4 for Li read from file:
     /hpcgpfs01/scratch/mtopsakal/paradox/OCEAN-1.2.0-IC/03-li.lda.fhi.UPF
     MD5 check sum: 58292b5c7d2b386e0f8e504c5a35e26e
     Pseudo is Norm-conserving + core correction, Zval =  1.0
     Generated by new atomic code, or converted to UPF format
     Using radial grid of  433 points,  3 beta functions with: 
                l(1) =   0
                l(2) =   1
                l(3) =   3

     atomic species   valence    mass     pseudopotential
        Ti1           12.00    47.86700     Ti( 1.00)
        Ti2           12.00    47.86700     Ti( 1.00)
        O              6.00    15.99940     O ( 1.00)
        Li             1.00     6.94100     Li( 1.00)

     Starting magnetic structure 
     atomic species   magnetization
        Ti1          0.500
        Ti2          0.000
        O            0.000
        Li           0.000


     Simplified LDA+U calculation (l_max = 2) with parameters (eV):
     atomic species    L          U    alpha       J0     beta
        Ti1            2     4.0000   0.0000   0.0000   0.0000



     No symmetry found



   Cartesian axes

     site n.     atom                  positions (alat units)
         1           Ti1 tau(   1) = (   0.5000000   0.0000000   0.0000000  )
         2           Ti1 tau(   2) = (  -0.2500000   0.4330127   0.0000000  )
         3           Ti1 tau(   3) = (   0.0023400   0.2914002   1.6248779  )
         4           Ti1 tau(   4) = (   0.2511900   0.1477266   0.8175925  )
         5           Ti1 tau(   5) = (   0.4976600   0.5746252   0.8175925  )
         6           Ti1 tau(   6) = (   0.2488100   0.7182988   1.6248779  )
         7           Ti2 tau(   7) = (   0.4925200   0.2929937   1.6187717  )
         8           Ti2 tau(   8) = (   0.0074800   0.5730317   0.8236987  )
         9           Ti2 tau(   9) = (   0.7506250   0.1439767   2.0552167  )
        10           Ti2 tau(  10) = (  -0.2506250   0.7220487   0.3872537  )
        11           O   tau(  11) = (   0.2414500   0.4379490   0.6241733  )
        12           O   tau(  12) = (   0.2585500   0.4280764   1.8182971  )
        13           O   tau(  13) = (   0.5176400   0.5822462   0.2148641  )
        14           O   tau(  14) = (   0.2454200   0.7394125   2.2276063  )
        15           O   tau(  15) = (  -0.0176400   0.2837792   2.2276063  )
        16           O   tau(  16) = (   0.2545800   0.1266129   0.2148641  )
        17           O   tau(  17) = (  -0.0079850   0.5819604   0.2053873  )
        18           O   tau(  18) = (   0.5079850   0.2840650   2.2370831  )
        19           O   tau(  19) = (   0.5011400   0.5643022   1.4428405  )
        20           O   tau(  20) = (   0.2381300   0.7161510   0.9996299  )
        21           O   tau(  21) = (  -0.0011400   0.3017233   0.9996299  )
        22           O   tau(  22) = (   0.2618700   0.1498744   1.4428405  )
        23           O   tau(  23) = (   0.0146350   0.5689007   1.4465775  )
        24           O   tau(  24) = (   0.4853650   0.2971247   0.9958929  )
        25           O   tau(  25) = (   0.7428100   0.1484887   1.4381998  )
        26           O   tau(  26) = (  -0.2428100   0.7175367   1.0042705  )
        27           O   tau(  27) = (   0.5163350   0.0183164   1.8309002  )
        28           O   tau(  28) = (  -0.2423050   0.4563174   0.6115702  )
        29           O   tau(  29) = (  -0.0163350   0.8477090   0.6115702  )
        30           O   tau(  30) = (   0.7423050   0.4097080   1.8309002  )
        31           O   tau(  31) = (   0.7361200   0.1523512   0.1813779  )
        32           O   tau(  32) = (  -0.2361200   0.7136742   2.2610925  )
        33           O   tau(  33) = (   0.9774550   0.0130164   1.8292393  )
        34           O   tau(  34) = (  -0.4774550   0.8530090   0.6132310  )
        35           Li  tau(  35) = (   0.2500000   0.4330127   0.0000000  )
        36           Li  tau(  36) = (   0.0000000   0.0000000   1.2212352  )
        37           Li  tau(  37) = (   0.0008100   0.2832423   0.3986844  )
        38           Li  tau(  38) = (   0.2448900   0.1423226   2.0437859  )
        39           Li  tau(  39) = (   0.4991900   0.5827831   2.0437859  )
        40           Li  tau(  40) = (   0.2551100   0.7237028   0.3986844  )
        41           Li  tau(  41) = (   0.5000050   0.2886722   0.4036182  )
        42           Li  tau(  42) = (  -0.0000050   0.5773532   2.0388522  )
        43           Li  tau(  43) = (   0.5000000   0.0000000   1.2212352  )
        44           Li  tau(  44) = (  -0.2500000   0.4330127   1.2212352  )
        45           Li  tau(  45) = (   0.7463800   0.1464276   0.8180810  )
        46           Li  tau(  46) = (  -0.2463800   0.7195978   1.6243894  )
        47           Li  tau(  47) = (   0.2500000   0.4330127   1.2212352  )
        48           Li  tau(  48) = (   0.0000000   0.0000000   0.0000000  )

     number of k points=    32  gaussian smearing, width (Ry)=  0.0020
                       cart. coord. in units 2pi/alat
        k(    1) = (   0.0312500   0.0902110   0.0767665), wk =   0.0312500
        k(    2) = (   0.0312500   0.0902110   0.2814773), wk =   0.0312500
        k(    3) = (   0.0312500   0.3788861   0.0767665), wk =   0.0312500
        k(    4) = (   0.0312500   0.3788861   0.2814773), wk =   0.0312500
        k(    5) = (   0.0312500   0.6675612   0.0767665), wk =   0.0312500
        k(    6) = (   0.0312500   0.6675612   0.2814773), wk =   0.0312500
        k(    7) = (   0.0312500   0.9562364   0.0767665), wk =   0.0312500
        k(    8) = (   0.0312500   0.9562364   0.2814773), wk =   0.0312500
        k(    9) = (   0.2812500   0.2345485   0.0767665), wk =   0.0312500
        k(   10) = (   0.2812500   0.2345485   0.2814773), wk =   0.0312500
        k(   11) = (   0.2812500   0.5232237   0.0767665), wk =   0.0312500
        k(   12) = (   0.2812500   0.5232237   0.2814773), wk =   0.0312500
        k(   13) = (   0.2812500   0.8118988   0.0767665), wk =   0.0312500
        k(   14) = (   0.2812500   0.8118988   0.2814773), wk =   0.0312500
        k(   15) = (   0.2812500   1.1005740   0.0767665), wk =   0.0312500
        k(   16) = (   0.2812500   1.1005740   0.2814773), wk =   0.0312500
        k(   17) = (   0.5312500   0.3788861   0.0767665), wk =   0.0312500
        k(   18) = (   0.5312500   0.3788861   0.2814773), wk =   0.0312500
        k(   19) = (   0.5312500   0.6675612   0.0767665), wk =   0.0312500
        k(   20) = (   0.5312500   0.6675612   0.2814773), wk =   0.0312500
        k(   21) = (   0.5312500   0.9562364   0.0767665), wk =   0.0312500
        k(   22) = (   0.5312500   0.9562364   0.2814773), wk =   0.0312500
        k(   23) = (   0.5312500   1.2449115   0.0767665), wk =   0.0312500
        k(   24) = (   0.5312500   1.2449115   0.2814773), wk =   0.0312500
        k(   25) = (   0.7812500   0.5232237   0.0767665), wk =   0.0312500
        k(   26) = (   0.7812500   0.5232237   0.2814773), wk =   0.0312500
        k(   27) = (   0.7812500   0.8118988   0.0767665), wk =   0.0312500
        k(   28) = (   0.7812500   0.8118988   0.2814773), wk =   0.0312500
        k(   29) = (   0.7812500   1.1005740   0.0767665), wk =   0.0312500
        k(   30) = (   0.7812500   1.1005740   0.2814773), wk =   0.0312500
        k(   31) = (   0.7812500   1.3892491   0.0767665), wk =   0.0312500
        k(   32) = (   0.7812500   1.3892491   0.2814773), wk =   0.0312500

     Dense  grid:   398099 G-vectors     FFT dimensions: (  72,  72, 180)

     Estimated max dynamical RAM per process >     495.85MB

     Estimated total allocated dynamical RAM >   17850.43MB
     Generating pointlists ...
     new r_m :   0.1362 (alat units)  1.5206 (a.u.) for type    1
     new r_m :   0.1324 (alat units)  1.4783 (a.u.) for type    2
     new r_m :   0.1324 (alat units)  1.4783 (a.u.) for type    3
     new r_m :   0.1434 (alat units)  1.6013 (a.u.) for type    4

     The potential is recalculated from file :
     ./Out/system.save/charge-density.dat

     Number of +U iterations with fixed ns =  0
     Starting occupations:
 --- enter write_ns ---
 LDA+U parameters:
U( 1)     =  4.00000000
alpha( 1) =  0.00000000
atom    1   Tr[ns(na)] (up, down, total) =   1.96677  1.13044  3.09721
   spin  1
    eigenvalues: 
  0.164  0.182  0.342  0.406  0.872
    eigenvectors:
  0.144  0.496  0.003  0.015  0.341
  0.214  0.022  0.146  0.536  0.082
  0.121  0.150  0.501  0.179  0.049
  0.260  0.307  0.288  0.039  0.105
  0.260  0.025  0.061  0.231  0.422
    occupations:
  0.419  0.142  0.092  0.127  0.250
  0.142  0.378  0.073  0.069  0.030
  0.092  0.073  0.334 -0.033  0.085
  0.127  0.069 -0.033  0.305  0.150
  0.250  0.030  0.085  0.150  0.530
   spin  2
    eigenvalues: 
  0.114  0.147  0.165  0.321  0.382
    eigenvectors:
  0.435  0.073  0.480  0.002  0.010
  0.098  0.167  0.073  0.138  0.523
  0.028  0.184  0.112  0.507  0.169
  0.058  0.385  0.228  0.286  0.043
  0.381  0.191  0.106  0.066  0.255
    occupations:
  0.144  0.010 -0.004 -0.012 -0.032
  0.010  0.292  0.024 -0.001 -0.107
 -0.004  0.024  0.276 -0.085 -0.018
 -0.012 -0.001 -0.085  0.209 -0.001
 -0.032 -0.107 -0.018 -0.001  0.208
atomic mag. moment =     0.836323
atom    2   Tr[ns(na)] (up, down, total) =   1.96677  1.13044  3.09721
   spin  1
    eigenvalues: 
  0.164  0.182  0.342  0.406  0.872
    eigenvectors:
  0.144  0.495  0.003  0.015  0.341
  0.284  0.068  0.646  0.000  0.002
  0.052  0.104  0.001  0.715  0.129
  0.035  0.172  0.003  0.265  0.525
  0.486  0.161  0.347  0.005  0.002
    occupations:
  0.419 -0.008 -0.169 -0.279  0.015
 -0.008  0.282  0.017  0.019 -0.084
 -0.169  0.017  0.430  0.081  0.003
 -0.279  0.019  0.081  0.604 -0.023
  0.015 -0.084  0.003 -0.023  0.232
   spin  2
    eigenvalues: 
  0.114  0.147  0.165  0.321  0.382
    eigenvectors:
  0.435  0.073  0.480  0.002  0.010
  0.000  0.332  0.024  0.644  0.000
  0.126  0.020  0.162  0.001  0.692
  0.429  0.005  0.272  0.002  0.292
  0.010  0.571  0.063  0.350  0.005
    occupations:
  0.144  0.009 -0.007  0.033 -0.006
  0.009  0.260  0.005 -0.004 -0.082
 -0.007  0.005  0.309 -0.110  0.014
  0.033 -0.004 -0.110  0.207 -0.000
 -0.006 -0.082  0.014 -0.000  0.210
atomic mag. moment =     0.836330
atom    3   Tr[ns(na)] (up, down, total) =   1.98534  1.09325  3.07859
   spin  1
    eigenvalues: 
  0.166  0.171  0.345  0.391  0.912
    eigenvectors:
  0.687  0.125  0.001  0.002  0.186
  0.089  0.230  0.662  0.000  0.018
  0.039  0.034  0.002  0.557  0.368
  0.050  0.109  0.000  0.435  0.406
  0.135  0.502  0.336  0.006  0.022
    occupations:
  0.306  0.047 -0.188 -0.211  0.047
  0.047  0.299 -0.050 -0.065 -0.067
 -0.188 -0.050  0.567  0.178 -0.058
 -0.211 -0.065  0.178  0.568 -0.082
  0.047 -0.067 -0.058 -0.082  0.246
   spin  2
    eigenvalues: 
  0.113  0.138  0.155  0.322  0.365
    eigenvectors:
  0.259  0.738  0.001  0.002  0.001
  0.024  0.023  0.291  0.661  0.000
  0.305  0.089  0.021  0.002  0.583
  0.375  0.137  0.077  0.000  0.411
  0.036  0.013  0.611  0.334  0.005
    occupations:
  0.132  0.005  0.012  0.004 -0.006
  0.005  0.264  0.014  0.005 -0.080
  0.012  0.014  0.264 -0.119  0.012
  0.004  0.005 -0.119  0.223 -0.006
 -0.006 -0.080  0.012 -0.006  0.210
atomic mag. moment =     0.892089
atom    4   Tr[ns(na)] (up, down, total) =   1.98522  1.09328  3.07850
   spin  1
    eigenvalues: 
  0.166  0.171  0.345  0.391  0.913
    eigenvectors:
  0.683  0.126  0.001  0.002  0.190
  0.106  0.007  0.136  0.404  0.349
  0.025  0.258  0.528  0.154  0.036
  0.041  0.605  0.247  0.069  0.038
  0.145  0.005  0.089  0.372  0.388
    occupations:
  0.309  0.188  0.054  0.066  0.207
  0.188  0.541  0.092  0.080  0.168
  0.054  0.092  0.323 -0.058  0.073
  0.066  0.080 -0.058  0.257  0.100
  0.207  0.168  0.073  0.100  0.556
   spin  2
    eigenvalues: 
  0.113  0.138  0.155  0.322  0.366
    eigenvectors:
  0.262  0.735  0.001  0.002  0.001
  0.308  0.113  0.022  0.133  0.425
  0.020  0.000  0.291  0.531  0.158
  0.020  0.007  0.664  0.242  0.066
  0.389  0.145  0.023  0.093  0.350
    occupations:
  0.132 -0.008 -0.010  0.003 -0.007
 -0.008  0.252  0.007 -0.009 -0.116
 -0.010  0.007  0.276 -0.082 -0.016
  0.003 -0.009 -0.082  0.208  0.003
 -0.007 -0.116 -0.016  0.003  0.225
atomic mag. moment =     0.891935
atom    5   Tr[ns(na)] (up, down, total) =   1.98524  1.09328  3.07852
   spin  1
    eigenvalues: 
  0.166  0.171  0.345  0.391  0.913
    eigenvectors:
  0.683  0.125  0.001  0.002  0.189
  0.090  0.232  0.661  0.000  0.017
  0.041  0.033  0.002  0.557  0.367
  0.052  0.107  0.000  0.435  0.405
  0.135  0.503  0.336  0.006  0.021
    occupations:
  0.309  0.047 -0.189 -0.213  0.046
  0.047  0.298 -0.049 -0.063 -0.068
 -0.189 -0.049  0.566  0.178 -0.056
 -0.213 -0.063  0.178  0.567 -0.080
  0.046 -0.068 -0.056 -0.080  0.245
   spin  2
    eigenvalues: 
  0.113  0.138  0.155  0.322  0.366
    eigenvectors:
  0.262  0.735  0.001  0.002  0.001
  0.024  0.023  0.292  0.661  0.000
  0.304  0.090  0.020  0.002  0.583
  0.374  0.139  0.076  0.000  0.411
  0.036  0.013  0.611  0.335  0.005
    occupations:
  0.132  0.005  0.012  0.004 -0.006
  0.005  0.264  0.014  0.005 -0.080
  0.012  0.014  0.264 -0.119  0.012
  0.004  0.005 -0.119  0.223 -0.006
 -0.006 -0.080  0.012 -0.006  0.210
atomic mag. moment =     0.891959
atom    6   Tr[ns(na)] (up, down, total) =   1.98528  1.09327  3.07856
   spin  1
    eigenvalues: 
  0.166  0.171  0.345  0.391  0.912
    eigenvectors:
  0.688  0.124  0.001  0.002  0.185
  0.102  0.007  0.135  0.404  0.352
  0.025  0.258  0.529  0.153  0.035
  0.042  0.606  0.247  0.069  0.036
  0.142  0.005  0.089  0.372  0.392
    occupations:
  0.305  0.186  0.052  0.064  0.206
  0.186  0.544  0.091  0.079  0.170
  0.052  0.091  0.322 -0.059  0.072
  0.064  0.079 -0.059  0.255  0.098
  0.206  0.170  0.072  0.098  0.559
   spin  2
    eigenvalues: 
  0.113  0.138  0.155  0.322  0.365
    eigenvectors:
  0.258  0.738  0.001  0.002  0.001
  0.310  0.111  0.021  0.132  0.425
  0.020  0.000  0.290  0.531  0.158
  0.020  0.007  0.665  0.242  0.066
  0.392  0.143  0.023  0.092  0.350
    occupations:
  0.132 -0.008 -0.010  0.003 -0.007
 -0.008  0.252  0.007 -0.009 -0.116
 -0.010  0.007  0.276 -0.082 -0.016
  0.003 -0.009 -0.082  0.208  0.003
 -0.007 -0.116 -0.016  0.003  0.225
atomic mag. moment =     0.892009
N of occupied +U levels =   18.508596
 --- exit write_ns ---
 Atomic wfc used for LDA+U Projector are NOT orthogonalized
     Starting wfc are  698 randomized atomic wfcs

     Band Structure Calculation
     Davidson diagonalization with overlap

     ethr =  3.96E-10,  avg # of iterations = 16.0

     total cpu time spent up to now is     2660.8 secs

     End of band structure calculation

 ------ SPIN UP ------------


          k = 0.0312 0.0902 0.0768 ( 49744 PWs)   bands (ev):

   -47.3980 -47.3969 -47.3767 -47.3634 -47.2808 -47.2492 -47.2273 -47.2267
   -47.1900 -47.1893 -25.1683 -25.1450 -25.0713 -24.9577 -24.9408 -24.9153
   -24.8940 -24.8708 -24.8547 -24.8370 -24.8180 -24.7926 -24.7881 -24.7231
   -24.7160 -24.7102 -24.7047 -24.7012 -24.5923 -24.5151 -24.5120 -24.4916
   -24.4769 -24.4330 -24.4250 -24.4240 -24.4168 -24.4149 -24.3438 -24.3428
   -10.1129 -10.0064  -9.7034  -9.3149  -9.2012  -9.1259  -9.1106  -9.0660
    -8.9673  -8.9372  -8.9108  -8.8911  -8.8262  -8.7352  -8.6601  -8.6242
    -8.5755  -8.5712  -8.5476  -8.4941  -8.4888  -8.4189  -8.4047  -8.2475
     2.1331   2.2420   2.2807   2.3506   2.4019   2.4756   2.4923   2.8370
     2.8652   2.9702   3.1831   3.2068   3.2152   3.2571   3.2972   3.3009
     3.3458   3.3894   3.4343   3.5337   3.6845   3.7592   3.7754   4.0332
     4.0505   4.1454   4.1909   4.2327   4.2495   4.2941   4.3207   4.3565
     4.4027   4.5337   4.6336   4.6853   4.7403   4.8852   4.9203   4.9630
     5.0704   5.0928   5.2647   5.2723   5.3592   5.3676   5.4310   5.4416
     5.4899   5.5088   5.5488   5.5994   5.6179   5.6711   5.6748   5.7248
     5.8234   5.8388   5.9135   5.9921   6.0185   6.1137   6.1669   6.3157
     6.3602   6.5024   6.5088   6.5472   6.5954   6.5991   6.6333   6.6405
     8.3019   8.4951   8.5799   8.6140   8.7263   8.8486  10.2454  10.3859
    10.4593  10.4785  10.5422  10.6158  10.7407  10.7666  10.7826  10.8032
    10.8370  10.8597  11.0720  11.0752  11.0902  11.3816  11.4400  11.4744
    11.7729  11.8209  11.8840  12.0740  12.0845  12.1037  12.8510  13.0496
    13.0712  13.1666  13.1824  13.2627  13.2920  13.3344  13.3851  13.4176
    13.4394  13.4649  13.4930  13.5328  13.5667  13.5890  13.6266  13.6751
    13.7038  13.8505  13.9991  14.5450  15.0680  15.4008  15.5470  15.6075
    15.6528  15.7435  15.8898  16.3360  16.4864  16.5498  17.1447  17.3245
    17.6075  18.5694  18.7268  18.8908  18.9186  19.0826  19.1983  19.3475
    19.5708  19.6822  19.7279  19.8645  19.8964  20.1109  20.1343  20.1554
    20.1645  20.2797  20.3238  20.4334  20.4609  20.4996  20.6608  20.8751
    21.0690  21.1919  21.4676  21.5673  21.6107  21.7365  21.7651  21.8349
    21.9576  21.9838  22.0410  22.0698  22.0894  22.3207  22.4274  22.4398
    22.5101  22.5959  22.6050  22.6763  22.7446  22.7826  22.8978  22.9209
    23.0165  23.0445  23.1377  23.1501  23.3162  23.4468  23.4547  23.5903
    23.6533  23.6726  23.7926  23.8787  24.0452  24.1445  24.3906  24.7410
    24.8877  24.9879  25.0823  25.5440  25.6118  25.7540  26.0833  26.2727
    26.4655  26.6561  26.7237  26.8799  27.0867  27.1854  27.2345  27.5243
    27.6330  27.7035  27.7420  27.9675  28.0665  28.2063  28.3288  28.4431
    28.5454  28.6093  28.7263  28.8320  29.0348  29.6072  29.8256  29.9245
    30.1976  30.2886  30.4877  30.6122  30.9817  31.0912  31.1620  31.3838
    31.4995  31.6330  31.7433  32.0804  32.1214  32.2549  32.6322  32.7355
    32.8174  32.9990  33.0754  33.1100  33.2239  33.3864  33.5224  33.5661
    33.6840  33.7710  33.9587  34.0282  34.0741  34.1867  34.2402  34.2747
    34.3930  34.4466  34.5834  34.5865  34.6557  34.8885  35.0487  35.1389
    35.3694  35.3915  35.4816  35.7009  35.8105  35.8801  36.0040  36.0869
    36.1183  36.2003  36.3280  36.3923  36.5347  36.6269  36.7146  36.7688
    36.8328  36.9526  37.1137  37.1820  37.2777  37.3831  37.4073  37.5043
    37.5497  37.6218  37.7634  37.7879  37.8996  37.9215  38.0470  38.1587
    38.2362  38.2660  38.3072  38.4608  38.4903  38.5329  38.7623  38.7876
    38.8172  38.9979  39.0526  39.0871  39.2764  39.3715  39.4568  39.5282
    39.6070  39.7267  39.7653  39.9158  40.0432  40.1330  40.2601  40.3390
    40.4440  40.4888  40.5322  40.6140  40.6727  40.8063  40.9170  41.0629
    41.1873  41.2721  41.3562  41.3974  41.4758  41.7005  41.7328  41.8235
    41.8672  41.9195  41.9903  42.0328  42.1779  42.2568  42.3132  42.3867
    42.5034  42.6061  42.6332  42.6964  42.9515  43.0341  43.1447  43.2669
    43.4110  43.5239  43.6663  43.7934  43.9159  44.0302  44.1373  44.3904
    44.4718  44.5048  44.5881  44.9104  44.9317  44.9959  45.0809  45.0876
    45.1782  45.3371  45.4148  45.4279  45.4910  45.5209  45.6591  45.7271
    45.7749  45.8714  45.9639  46.0492  46.1177  46.1791  46.3135  46.3597
    46.5027  46.5338  46.6314  46.6539  46.8112  46.9013  47.0009  47.2280
    47.2714  47.3111  47.5011  47.5369  47.6016  47.7375  47.7911  47.9169
    47.9436  48.0664  48.1994  48.2968  48.3629  48.4046  48.4640  48.5086
    48.6516  48.7232  48.7720  48.9305  49.0233  49.0679  49.1483  49.2634
    49.3753  49.4040  49.4367  49.4762  49.6152  49.6760  49.7735  49.8164
    49.9744  50.0174  50.0229  50.0424  50.1825  50.2204  50.2999  50.3445
    50.4883  50.6212  50.7540  50.8006  50.8886  51.0987  51.1205  51.1340
    51.2035  51.3305  51.3904  51.4122  51.5235  51.6269  51.7016  51.7225
    51.7417  51.8383  51.8488  51.9192  51.9481  51.9934  52.1078  52.1303
    52.1805  52.2412  52.3030  52.3283  52.4070  52.5061  52.5626  52.6803
    52.7593  52.7754  52.8388  52.9798  53.0107  53.1125  53.1575  53.1786
    53.2032  53.2296  53.3913  53.4330  53.4969  53.6085  53.6763  53.7812
    53.9186  53.9518  54.0234  54.1476  54.2036  54.3012  54.3548  54.4570
    54.5908  54.6133  54.7309  54.9258  54.9770  55.0395  55.1816  55.2313
    55.2801  55.4335  55.5963  55.6784  55.7469  55.8457  55.8884  56.0382
    56.1546  56.3054  56.3312  56.3579  56.4990  56.5588  56.6143  56.6827
    56.7300  56.8193  56.8288  56.8988  56.9263  57.0190  57.2001  57.2244
    57.3244  57.5391  57.5931  57.7277  57.7420  57.8778  58.0433  58.1573

          k = 0.0312 0.0902 0.2815 ( 49773 PWs)   bands (ev):

   -47.3980 -47.3970 -47.3767 -47.3634 -47.2808 -47.2492 -47.2273 -47.2267
   -47.1900 -47.1893 -25.1683 -25.1450 -25.0713 -24.9577 -24.9408 -24.9152
   -24.8939 -24.8709 -24.8548 -24.8370 -24.8180 -24.7925 -24.7881 -24.7231
   -24.7160 -24.7102 -24.7048 -24.7012 -24.5923 -24.5151 -24.5120 -24.4916
   -24.4769 -24.4330 -24.4250 -24.4240 -24.4168 -24.4149 -24.3439 -24.3428
   -10.1014 -10.0258  -9.6891  -9.3177  -9.2091  -9.1278  -9.1132  -9.0573
    -8.9631  -8.9374  -8.9111  -8.9074  -8.8250  -8.7124  -8.6656  -8.6278
    -8.5716  -8.5676  -8.5481  -8.4990  -8.4959  -8.4171  -8.4035  -8.2476
     2.1450   2.2459   2.2778   2.3633   2.4062   2.4554   2.4813   2.8296
     2.8737   2.9147   3.1830   3.2017   3.2081   3.2645   3.2826   3.3215
     3.3560   3.4217   3.4999   3.5107   3.6668   3.7761   3.8060   4.0306
     4.0726   4.1327   4.1408   4.2286   4.2495   4.2917   4.3144   4.3649
     4.3956   4.5241   4.6082   4.7203   4.7465   4.8538   4.9124   4.9800
     5.0750   5.1021   5.2473   5.2575   5.3206   5.3627   5.4079   5.4203
     5.4960   5.5226   5.5600   5.6150   5.6304   5.6695   5.7013   5.7227
     5.8041   5.8774   5.9616   5.9894   6.0203   6.1400   6.2044   6.3133
     6.3251   6.4530   6.5127   6.5258   6.5870   6.6046   6.6302   6.6522
     8.3235   8.4569   8.5888   8.6346   8.7065   8.8570  10.2680  10.3528
    10.4627  10.4680  10.5562  10.6226  10.7481  10.7604  10.7765  10.8059
    10.8422  10.8545  11.0719  11.0769  11.0885  11.3848  11.4322  11.4790
    11.7702  11.8239  11.8842  12.0738  12.0855  12.1030  12.8502  13.0517
    13.0727  13.1712  13.1835  13.2458  13.2956  13.3511  13.3876  13.4096
    13.4363  13.4754  13.4925  13.5124  13.5638  13.6044  13.6516  13.6638
    13.7064  13.8078  14.0641  14.3968  15.1758  15.4739  15.6139  15.6651
    15.7204  15.7262  15.8929  16.1314  16.2968  16.3726  17.3499  17.4949
    17.8058  18.4148  18.5796  18.7826  18.9718  19.1120  19.1768  19.3321
    19.6647  19.6871  19.7354  19.8629  19.8986  20.0776  20.1119  20.1525
    20.1777  20.3041  20.3232  20.4467  20.4528  20.4579  20.6643  20.9418
    21.1305  21.2408  21.4544  21.5241  21.5672  21.6941  21.7693  21.8608
    21.9189  21.9641  22.0134  22.0906  22.1192  22.3161  22.3865  22.4910
    22.5358  22.5582  22.6363  22.7040  22.7291  22.7933  22.8821  22.9630
    22.9741  23.0470  23.1134  23.1418  23.3103  23.4398  23.4669  23.5532
    23.6456  23.6923  23.7974  23.8773  24.0601  24.0871  24.4103  24.8066
    24.9751  25.0437  25.1219  25.5305  25.5879  25.7187  26.0809  26.1156
    26.3992  26.6739  26.7078  26.9113  27.0850  27.1918  27.2666  27.5147
    27.5300  27.6454  27.8675  28.0088  28.0770  28.2759  28.3179  28.4237
    28.5445  28.6082  28.8508  29.0545  29.1017  29.4972  29.5934  29.7926
    29.9309  30.1714  30.4971  30.6654  31.0085  31.1535  31.2253  31.2983
    31.6729  31.7856  31.9991  32.1761  32.2409  32.2833  32.5427  32.7652
    32.8100  32.9772  33.0609  33.1491  33.2200  33.3718  33.5505  33.5975
    33.7023  33.7773  33.8232  33.8529  33.9992  34.1250  34.1649  34.2175
    34.3042  34.3647  34.4382  34.4658  34.6301  34.8346  34.8829  35.1476
    35.2346  35.3526  35.6367  35.8057  35.8312  35.9080  35.9791  36.0970
    36.1795  36.3151  36.4009  36.5311  36.6149  36.6834  36.7476  36.8100
    36.8827  37.0287  37.1042  37.1861  37.3789  37.4927  37.5080  37.5234
    37.6749  37.7133  37.7728  37.8398  37.9223  37.9590  38.0260  38.1863
    38.2904  38.3202  38.3666  38.3832  38.4902  38.5446  38.7254  38.7655
    38.8582  38.9420  39.0196  39.0335  39.2437  39.3792  39.4538  39.4772
    39.6542  39.6741  39.7645  39.7649  39.9304  40.0854  40.1295  40.1560
    40.2752  40.3218  40.4400  40.5498  40.7125  40.7508  40.8919  40.9907
    41.1149  41.1590  41.1763  41.3483  41.4915  41.6358  41.7215  41.7822
    41.9316  41.9758  42.1059  42.1313  42.2417  42.2858  42.3212  42.4074
    42.4727  42.5699  42.5990  42.7196  42.8954  43.0195  43.2199  43.3514
    43.4206  43.7442  43.9860  44.0503  44.0647  44.2435  44.2728  44.3842
    44.4962  44.6754  44.8048  44.8367  44.8619  44.9521  45.1141  45.1294
    45.1580  45.3159  45.3770  45.4714  45.5370  45.5699  45.6621  45.7410
    45.8089  45.8583  45.8965  45.9851  46.0443  46.0933  46.2633  46.3179
    46.4168  46.4869  46.5822  46.6851  46.7262  46.7701  46.9094  47.1073
    47.2114  47.2654  47.3000  47.3818  47.5391  47.6509  47.7629  47.7884
    47.9566  48.1221  48.1849  48.2755  48.3163  48.5129  48.5266  48.6153
    48.7093  48.7447  48.8132  48.9372  48.9966  49.0684  49.2195  49.2610
    49.3999  49.4535  49.5136  49.6110  49.6530  49.6828  49.7464  49.8210
    49.8871  49.9373  50.0052  50.1123  50.1673  50.2072  50.3413  50.4221
    50.4936  50.5871  50.6876  50.8038  50.9331  50.9494  51.1157  51.1697
    51.2440  51.3175  51.4041  51.4685  51.5299  51.5922  51.6625  51.6888
    51.7441  51.8153  51.8430  51.9688  51.9960  52.0277  52.1003  52.1347
    52.2315  52.2490  52.2847  52.3119  52.4072  52.4608  52.4908  52.6049
    52.7017  52.7480  52.8279  52.9021  52.9481  53.0507  53.0869  53.1473
    53.2484  53.2910  53.4075  53.4262  53.4612  53.6696  53.6974  53.8238
    53.8547  53.9197  54.0639  54.2224  54.3037  54.3964  54.4573  54.5628
    54.6078  54.6714  54.8077  54.9319  55.0385  55.1321  55.2355  55.2415
    55.3399  55.6015  55.6608  55.7320  55.8080  55.8545  56.0109  56.0459
    56.0982  56.2386  56.2823  56.3876  56.4727  56.5308  56.5717  56.6166
    56.7040  56.7959  56.8685  56.9060  56.9829  57.1069  57.1216  57.2344
    57.3212  57.4448  57.5465  57.6111  57.7265  57.8957  57.9544  58.0737

          k = 0.0312 0.3789 0.0768 ( 49752 PWs)   bands (ev):

   -47.3946 -47.3940 -47.3731 -47.3665 -47.2748 -47.2593 -47.2207 -47.2200
   -47.2015 -47.2008 -25.0869 -25.0677 -24.9991 -24.9386 -24.9171 -24.8943
   -24.8737 -24.8671 -24.8399 -24.8205 -24.8117 -24.8071 -24.7806 -24.7782
   -24.7710 -24.7354 -24.7094 -24.7037 -24.5681 -24.5229 -24.5107 -24.5099
   -24.4810 -24.4700 -24.4640 -24.4551 -24.4209 -24.4193 -24.3937 -24.3920
    -9.9058  -9.8210  -9.5358  -9.3612  -9.2199  -9.1637  -9.0919  -9.0679
    -9.0003  -8.9781  -8.9425  -8.9037  -8.8669  -8.7901  -8.7372  -8.7091
    -8.6316  -8.5891  -8.5343  -8.5215  -8.4830  -8.4384  -8.4220  -8.3369
     2.4943   2.5348   2.5968   2.6281   2.7299   2.7993   2.8338   3.0294
     3.0826   3.1085   3.1666   3.2641   3.2910   3.3023   3.3184   3.3599
     3.4293   3.4462   3.5264   3.6640   3.6917   3.7616   3.7812   3.9108
     3.9553   4.0474   4.0574   4.1491   4.2109   4.2493   4.3018   4.3241
     4.4334   4.4847   4.5468   4.6175   4.7007   4.7241   4.7924   4.9062
     4.9735   4.9873   5.0600   5.0773   5.1105   5.1548   5.1877   5.2669
     5.3037   5.3192   5.3470   5.4496   5.5166   5.6005   5.6465   5.7004
     5.7578   5.7846   5.8275   5.8612   5.9026   5.9906   6.0322   6.0855
     6.1644   6.2019   6.2708   6.3943   6.4415   6.5494   6.5603   6.6348
     8.5603   8.5747   8.7377   8.8375   8.9816   9.0499  10.3983  10.4509
    10.4652  10.5847  10.7075  10.7109  10.7218  10.7546  10.7854  10.8400
    10.8663  10.9121  11.2501  11.3077  11.3434  11.4274  11.4648  11.5361
    11.7190  11.7276  11.7719  11.8325  11.8759  11.9154  12.6719  12.7206
    12.8703  12.9147  12.9826  13.0359  13.1049  13.1335  13.1942  13.2679
    13.3147  13.3363  13.3648  13.4315  13.4439  13.4944  13.5287  13.5731
    13.6936  13.7253  14.7376  15.4540  15.6441  15.7390  16.3889  16.5378
    16.5722  16.6526  16.7566  16.8679  16.8804  17.0123  17.0737  17.7200
    17.9932  18.0527  18.3915  18.5208  18.5692  18.8678  18.9864  19.2414
    19.3753  19.4161  19.6016  19.6996  19.8077  19.8935  19.9480  19.9793
    20.0510  20.1918  20.2567  20.3105  20.4477  20.6272  20.6455  20.7291
    20.8223  21.0424  21.1417  21.5545  21.6181  21.7277  21.8318  21.8927
    21.9142  22.0366  22.1449  22.1999  22.2304  22.3011  22.3834  22.4272
    22.5276  22.6246  22.6979  22.7762  22.7825  22.9039  23.0720  23.1495
    23.1690  23.2916  23.3198  23.3243  23.5055  23.5392  23.5897  23.6508
    23.7134  23.8238  24.0562  24.1360  24.2361  24.3587  24.5328  24.5678
    24.6281  24.7481  24.8147  25.0293  25.1370  25.2973  25.3648  25.7671
    25.8957  25.9642  26.2195  26.5917  26.6425  26.7704  26.8620  27.1177
    27.2035  27.4852  27.7451  27.9340  28.0409  28.3075  28.4910  28.6199
    28.7176  28.9798  29.0607  29.1074  29.2143  29.2879  29.5637  30.2035
    30.2964  30.3219  30.7533  30.8199  31.0565  31.1682  31.3660  31.4319
    31.5613  31.5735  31.7379  31.8286  31.9374  31.9504  32.1501  32.2561
    32.3210  32.6452  32.6744  32.9212  33.1633  33.2127  33.3810  33.4564
    33.4885  33.6276  33.7314  33.9142  34.0236  34.1941  34.2653  34.3484
    34.4912  34.5194  34.5633  34.6519  34.7608  34.8261  34.9154  35.0804
    35.1240  35.2646  35.3332  35.5146  35.6293  35.7039  35.8985  36.1248
    36.2971  36.5356  36.6934  36.7637  36.8678  36.9758  37.0442  37.1489
    37.1892  37.2398  37.3263  37.4020  37.4768  37.5216  37.5730  37.7227
    37.9333  38.0064  38.0425  38.2098  38.2648  38.3202  38.4238  38.4548
    38.5261  38.5933  38.6631  38.6838  38.8277  38.9174  38.9302  39.0887
    39.1205  39.2179  39.3059  39.3574  39.4000  39.5081  39.5850  39.6842
    39.7215  39.8270  39.9936  40.0149  40.2161  40.2812  40.3044  40.4139
    40.4955  40.7055  40.8013  40.8585  40.9266  41.0399  41.1204  41.1542
    41.2275  41.3478  41.4247  41.4904  41.6139  41.7346  41.7721  41.8118
    41.8821  41.9468  41.9887  42.0488  42.1550  42.2333  42.3163  42.4925
    42.5368  42.6740  42.7174  42.7512  42.8795  43.0170  43.0698  43.1197
    43.1960  43.2283  43.3237  43.4196  43.5378  43.6238  43.6532  43.7466
    43.8650  44.0630  44.2530  44.3064  44.3871  44.5054  44.5913  44.7743
    44.8573  44.9421  45.0216  45.0953  45.2330  45.2511  45.4402  45.5857
    45.6958  45.7767  45.8500  45.8867  46.0264  46.1095  46.2655  46.3099
    46.4093  46.4316  46.5175  46.5952  46.7409  46.8607  46.9025  46.9388
    47.0311  47.2053  47.2766  47.3957  47.4533  47.5693  47.5947  47.7171
    47.7577  47.8745  47.9273  48.0645  48.1126  48.1628  48.2745  48.3107
    48.4499  48.4665  48.7405  48.8247  48.9414  49.0192  49.1270  49.2020
    49.2482  49.3158  49.3870  49.5180  49.5727  49.5783  49.6729  49.6967
    49.8578  49.9409  49.9731  50.0971  50.1335  50.2013  50.3056  50.4040
    50.4824  50.5607  50.6098  50.7452  50.7960  50.9165  51.0695  51.1098
    51.1977  51.2406  51.3630  51.5184  51.5664  51.7124  51.7917  51.8395
    51.9882  52.0249  52.0936  52.1041  52.3001  52.3506  52.3744  52.5124
    52.6098  52.6693  52.6936  52.7697  52.8288  52.9295  52.9594  53.0098
    53.0787  53.1283  53.2098  53.2473  53.3352  53.4696  53.5031  53.5560
    53.5748  53.6236  53.7256  53.8038  53.8389  53.9791  54.0906  54.1062
    54.1527  54.2704  54.3098  54.3774  54.4793  54.5006  54.5725  54.7510
    54.8383  54.8708  54.8929  55.0234  55.0664  55.1635  55.3200  55.3932
    55.4217  55.5884  55.6689  55.7494  55.8500  55.9378  55.9856  56.0830
    56.1857  56.2266  56.3893  56.4242  56.5310  56.6103  56.6944  56.7477
    56.9151  57.0005  57.1076  57.1755  57.3821  57.4545  57.5132  57.5744
    57.6467  57.7203  57.8520  57.9802  58.0360  58.1494  58.1911  58.2509

          k = 0.0312 0.3789 0.2815 ( 49760 PWs)   bands (ev):

   -47.3946 -47.3940 -47.3731 -47.3665 -47.2748 -47.2593 -47.2207 -47.2200
   -47.2015 -47.2008 -25.0869 -25.0677 -24.9992 -24.9386 -24.9171 -24.8943
   -24.8737 -24.8671 -24.8399 -24.8205 -24.8117 -24.8070 -24.7806 -24.7781
   -24.7711 -24.7354 -24.7093 -24.7038 -24.5681 -24.5229 -24.5107 -24.5099
   -24.4810 -24.4701 -24.4639 -24.4552 -24.4209 -24.4194 -24.3938 -24.3919
    -9.8986  -9.8328  -9.5249  -9.3689  -9.2085  -9.1748  -9.0960  -9.0625
    -8.9930  -8.9843  -8.9266  -8.9072  -8.8914  -8.7961  -8.7270  -8.7092
    -8.5944  -8.5867  -8.5623  -8.5408  -8.4625  -8.4497  -8.4159  -8.3379
     2.4804   2.5656   2.6144   2.6644   2.6768   2.7696   2.8582   2.9958
     3.0588   3.1035   3.1301   3.2520   3.2792   3.3216   3.3771   3.3890
     3.4215   3.4859   3.5772   3.6132   3.6565   3.7664   3.7707   3.9090
     4.0123   4.0302   4.0854   4.1181   4.2016   4.2630   4.3197   4.3552
     4.4309   4.4966   4.5396   4.5779   4.7012   4.7388   4.7635   4.8229
     4.9645   4.9709   5.0093   5.0637   5.1178   5.1651   5.2159   5.2439
     5.3136   5.3747   5.4371   5.4471   5.5105   5.5405   5.6682   5.7057
     5.7929   5.8036   5.8366   5.8509   5.9364   5.9697   6.0072   6.0510
     6.1727   6.2119   6.3459   6.3697   6.4241   6.4856   6.5777   6.6317
     8.5120   8.6685   8.6910   8.8555   8.9513   9.0657  10.3881  10.4319
    10.5184  10.5908  10.6414  10.6988  10.7236  10.7675  10.8340  10.8384
    10.8696  10.8973  11.2510  11.3001  11.3502  11.4239  11.4681  11.5362
    11.7155  11.7372  11.7721  11.8189  11.8761  11.9231  12.6743  12.7377
    12.8531  12.8789  13.0038  13.0146  13.1023  13.1768  13.2129  13.2285
    13.3158  13.3372  13.3671  13.4284  13.4788  13.4946  13.5437  13.5944
    13.6200  13.7293  14.9229  15.0483  15.8234  16.0472  16.0976  16.3834
    16.5429  16.6206  16.7315  16.8564  17.0844  17.2161  17.3274  17.4839
    17.7729  17.8705  18.5172  18.5892  18.6939  19.0094  19.0264  19.1722
    19.2819  19.3249  19.6125  19.6310  19.7689  19.8335  19.9440  20.0591
    20.1098  20.1713  20.3000  20.4127  20.4534  20.5268  20.5835  20.7889
    20.8707  20.9340  21.3739  21.4506  21.5858  21.6904  21.8486  21.8755
    21.9278  22.0524  22.1186  22.1789  22.2336  22.3547  22.3872  22.4555
    22.4912  22.5896  22.7065  22.7715  22.8265  22.9331  22.9864  23.0353
    23.1364  23.2570  23.3317  23.3743  23.5302  23.5767  23.6592  23.7326
    23.7902  23.8564  24.0202  24.0780  24.1969  24.2557  24.3070  24.5408
    24.6529  24.7728  24.8965  25.0447  25.2772  25.4191  25.4785  25.7077
    25.7645  26.1684  26.2459  26.3465  26.6153  26.7655  27.0837  27.1670
    27.2579  27.3168  27.6781  28.0093  28.0503  28.1452  28.2784  28.3383
    28.4792  28.8261  29.1455  29.2541  29.7521  29.8543  29.9387  30.1568
    30.2028  30.3295  30.4607  30.5987  30.8421  30.9237  31.0893  31.3859
    31.5038  31.7090  31.8511  32.0051  32.0539  32.1043  32.2323  32.3651
    32.3901  32.6247  32.7353  32.8485  33.1014  33.2141  33.3484  33.5044
    33.5716  33.5802  33.7323  33.8022  33.9419  33.9921  34.1189  34.1717
    34.2724  34.3993  34.5202  34.6972  34.8701  34.8941  35.0715  35.1580
    35.2364  35.3707  35.6298  35.7294  35.7900  35.9375  36.0248  36.1823
    36.2616  36.4697  36.4871  36.5402  36.6751  36.7466  36.8583  37.0003
    37.0481  37.2954  37.3653  37.4461  37.4923  37.6767  37.7891  37.8363
    37.8743  37.9266  37.9606  38.0213  38.2021  38.3414  38.3622  38.4057
    38.4831  38.6529  38.7160  38.7638  38.8004  38.8569  39.0311  39.1300
    39.1616  39.3299  39.3408  39.3814  39.4295  39.5217  39.6422  39.6941
    39.7646  39.8349  39.9926  40.0876  40.1584  40.3080  40.3786  40.4213
    40.5410  40.5535  40.7218  40.7513  40.8873  40.9255  41.0817  41.2192
    41.3205  41.3902  41.4780  41.5856  41.6200  41.7144  41.7663  41.8640
    41.8943  42.0106  42.0417  42.1402  42.1730  42.2146  42.2691  42.4415
    42.5266  42.6124  42.7278  42.7864  42.8216  43.0051  43.0203  43.1205
    43.1572  43.2918  43.3749  43.4423  43.5814  43.6919  43.7390  43.8420
    43.9260  44.0115  44.1779  44.2109  44.2984  44.4742  44.6079  44.6768
    44.7562  44.8357  44.9535  44.9931  45.1626  45.2024  45.2956  45.4023
    45.5355  45.7035  45.7760  45.8424  46.0439  46.1084  46.2423  46.2871
    46.3672  46.4933  46.5254  46.7619  46.7745  46.8732  46.9598  47.0243
    47.1279  47.2073  47.2384  47.4344  47.5457  47.6055  47.6801  47.7277
    47.8470  47.8975  48.0196  48.0643  48.1429  48.3284  48.4042  48.4914
    48.5553  48.6079  48.7093  48.8288  48.9306  48.9780  49.0815  49.1808
    49.2015  49.2755  49.3621  49.3878  49.4974  49.6694  49.7363  49.8288
    49.9316  50.0052  50.0737  50.0861  50.1860  50.2791  50.3404  50.4944
    50.5424  50.6129  50.7125  50.8263  50.9102  50.9441  51.0432  51.1435
    51.2173  51.2995  51.3703  51.4253  51.5534  51.5783  51.6430  51.8288
    51.8592  51.9695  51.9906  52.0888  52.1066  52.3203  52.3435  52.4320
    52.4438  52.5248  52.5746  52.6109  52.7231  52.8227  52.8662  52.8865
    52.9819  53.0656  53.1364  53.1762  53.2263  53.2695  53.4121  53.4927
    53.5571  53.5912  53.7678  53.7941  53.8769  53.9301  54.0161  54.1116
    54.1463  54.3147  54.4023  54.5071  54.5177  54.5755  54.7179  54.7282
    54.8462  54.9078  54.9875  55.0538  55.1603  55.2438  55.2817  55.3575
    55.4386  55.5289  55.7158  55.8832  55.9886  56.0084  56.0754  56.1355
    56.2951  56.3092  56.4421  56.5014  56.5373  56.6273  56.6727  56.8473
    56.8933  57.0600  57.1633  57.1901  57.2365  57.2966  57.3692  57.4722
    57.5200  57.6552  57.8813  57.9284  57.9532  58.0224  58.1373  58.2414

          k = 0.0312 0.6676 0.0768 ( 49786 PWs)   bands (ev):

   -47.3932 -47.3928 -47.3718 -47.3677 -47.2723 -47.2627 -47.2188 -47.2181
   -47.2047 -47.2041 -25.0573 -25.0405 -24.9828 -24.9510 -24.8979 -24.8867
   -24.8700 -24.8546 -24.8245 -24.8146 -24.8122 -24.8072 -24.8004 -24.7923
   -24.7719 -24.7450 -24.7080 -24.7048 -24.5600 -24.5398 -24.5395 -24.5308
   -24.4787 -24.4736 -24.4620 -24.4537 -24.4244 -24.4219 -24.4058 -24.4031
    -9.8091  -9.7463  -9.4673  -9.3940  -9.2680  -9.2103  -9.0946  -9.0663
    -9.0088  -8.9806  -8.9395  -8.9281  -8.8577  -8.8128  -8.7543  -8.7355
    -8.6287  -8.5977  -8.5544  -8.5276  -8.4799  -8.4540  -8.4248  -8.3436
     2.5827   2.6699   2.7150   2.7650   2.7819   2.8968   2.9612   3.0108
     3.1285   3.1372   3.2310   3.2926   3.3453   3.3609   3.3881   3.4365
     3.4932   3.4976   3.5689   3.6137   3.7304   3.7811   3.8575   3.9365
     4.0038   4.0252   4.1272   4.1897   4.1908   4.2315   4.2456   4.2907
     4.3917   4.4117   4.4786   4.5538   4.5701   4.6322   4.6587   4.6595
     4.7695   4.8012   4.8726   5.0065   5.0113   5.1372   5.2016   5.2137
     5.2363   5.3072   5.3725   5.4545   5.4893   5.5525   5.5980   5.6334
     5.7193   5.8022   5.8530   5.8937   5.9317   5.9935   6.0144   6.0337
     6.1750   6.1975   6.3200   6.3391   6.3958   6.4374   6.5271   6.6162
     8.5596   8.6590   8.7352   8.8950   9.0926   9.1793  10.3702  10.4086
    10.5383  10.5900  10.6738  10.7187  10.7523  10.7874  10.8359  10.8590
    10.8926  10.9007  11.3088  11.3660  11.4325  11.4395  11.4918  11.5471
    11.6514  11.6801  11.7323  11.8060  11.8298  11.8883  12.5594  12.6360
    12.8391  12.8786  12.9575  12.9824  13.0391  13.1114  13.1684  13.2037
    13.2515  13.2685  13.3470  13.3926  13.4172  13.4950  13.5336  13.5473
    13.6570  13.7167  15.2833  15.4042  15.7579  16.0575  16.4401  16.7745
    16.8256  16.9343  17.0215  17.1859  17.2349  17.3425  17.4025  17.5852
    17.7553  18.0108  18.2015  18.2886  18.4048  18.7683  19.0322  19.1159
    19.2403  19.3539  19.5058  19.5198  19.7133  19.7913  19.8489  19.9427
    19.9782  20.2298  20.2462  20.3210  20.3710  20.4419  20.5898  20.7098
    21.0512  21.1162  21.2011  21.3574  21.7025  21.7558  21.8786  21.9430
    22.0016  22.0819  22.1505  22.2134  22.2278  22.2615  22.4208  22.4775
    22.5180  22.5928  22.7436  22.8008  22.8903  22.9027  22.9747  23.0956
    23.1499  23.2427  23.2923  23.4957  23.5891  23.6183  23.7357  23.8187
    23.8270  23.9724  23.9815  24.0673  24.1591  24.2133  24.2527  24.3615
    24.4160  24.5716  24.8120  25.0492  25.2700  25.4189  25.5102  25.6691
    25.8246  25.9719  26.1216  26.2945  26.4770  26.5701  26.7206  26.9441
    27.1042  27.3760  27.5963  28.1097  28.1765  28.4386  28.4560  28.5425
    28.7706  28.9946  29.1008  29.2509  29.4360  29.7478  30.0753  30.2012
    30.2810  30.4134  30.4954  30.5569  30.6853  30.7874  30.8180  30.9870
    31.3142  31.4505  31.4998  31.6317  31.7832  32.0113  32.0600  32.2126
    32.3122  32.5957  32.8351  32.8964  33.0129  33.0652  33.1436  33.3812
    33.4994  33.7115  33.7767  33.8231  33.8408  34.0180  34.1036  34.2402
    34.4216  34.6424  34.8141  34.9447  35.1952  35.2402  35.3760  35.4340
    35.5806  35.7160  35.7475  35.8734  35.9226  35.9617  36.1360  36.2308
    36.3549  36.3787  36.5301  36.5802  36.8087  36.8835  36.9117  37.1628
    37.2779  37.3363  37.3892  37.5346  37.6142  37.7455  37.8218  37.8499
    37.9702  38.0875  38.1634  38.2006  38.2378  38.3368  38.3741  38.4214
    38.5421  38.5551  38.6982  38.7301  38.8003  38.8548  38.9503  39.0215
    39.0701  39.2006  39.2215  39.3488  39.5112  39.5425  39.6580  39.7632
    39.8092  39.8893  39.9513  39.9997  40.1002  40.1637  40.2605  40.3710
    40.4013  40.5027  40.5951  40.7453  40.8005  40.8909  40.9727  41.0765
    41.1274  41.2151  41.3399  41.4964  41.5148  41.6056  41.6334  41.8128
    41.8482  41.9101  42.0104  42.0159  42.2190  42.3194  42.4479  42.5342
    42.6446  42.7869  42.7921  42.9146  42.9563  43.0117  43.0908  43.2572
    43.3405  43.5052  43.5751  43.6602  43.7569  43.7628  43.8977  43.9324
    44.0581  44.1438  44.1533  44.2000  44.3200  44.3969  44.5216  44.6279
    44.6726  44.8048  44.8516  44.9335  44.9896  45.1272  45.2482  45.3170
    45.3659  45.4496  45.6045  45.7357  45.7558  45.9273  46.0457  46.1733
    46.2456  46.3246  46.4650  46.5796  46.6551  46.7246  46.8231  46.8447
    46.9916  47.0578  47.1717  47.3283  47.5281  47.5734  47.6838  47.8003
    47.8807  47.9721  47.9915  48.1974  48.2151  48.3599  48.4750  48.5064
    48.5991  48.6123  48.7588  48.8623  48.9171  49.0180  49.1348  49.1855
    49.2254  49.2905  49.4384  49.5027  49.5626  49.6126  49.7090  49.8231
    49.8314  49.9462  50.0718  50.1411  50.2032  50.2554  50.4202  50.4515
    50.4678  50.5633  50.6973  50.7643  50.8525  50.9805  50.9973  51.1012
    51.1632  51.3614  51.3919  51.4484  51.5649  51.6684  51.7084  51.7815
    51.8381  51.9610  51.9713  52.0624  52.1827  52.2182  52.2753  52.3400
    52.3884  52.4348  52.5122  52.5507  52.7106  52.7662  52.8230  52.8893
    52.9340  53.0460  53.0772  53.1771  53.2259  53.3527  53.3644  53.5126
    53.6021  53.7269  53.8711  53.8873  53.9884  54.0682  54.1506  54.1736
    54.3329  54.4255  54.4708  54.5996  54.7423  54.7815  54.8926  54.9949
    55.0179  55.1185  55.1602  55.2946  55.3317  55.3959  55.4985  55.5368
    55.7163  55.8401  55.8818  55.9956  56.0299  56.1495  56.2857  56.3225
    56.4196  56.5057  56.5652  56.6420  56.6784  56.7995  56.8748  56.8989
    56.9859  57.0270  57.0789  57.1127  57.2536  57.3800  57.4401  57.4827
    57.6453  57.6908  57.7470  57.8593  57.9469  58.0264  58.0859  58.1818

          k = 0.0312 0.6676 0.2815 ( 49793 PWs)   bands (ev):

   -47.3932 -47.3928 -47.3718 -47.3677 -47.2723 -47.2627 -47.2188 -47.2181
   -47.2047 -47.2041 -25.0573 -25.0405 -24.9828 -24.9510 -24.8979 -24.8867
   -24.8701 -24.8545 -24.8245 -24.8147 -24.8122 -24.8072 -24.8005 -24.7923
   -24.7719 -24.7449 -24.7081 -24.7047 -24.5600 -24.5398 -24.5395 -24.5308
   -24.4787 -24.4736 -24.4621 -24.4537 -24.4244 -24.4219 -24.4056 -24.4033
    -9.8033  -9.7549  -9.4623  -9.3940  -9.2557  -9.2279  -9.0955  -9.0647
    -9.0029  -8.9853  -8.9354  -8.9327  -8.8624  -8.8038  -8.7584  -8.7275
    -8.6435  -8.5800  -8.5674  -8.5171  -8.4973  -8.4467  -8.4188  -8.3463
     2.6095   2.6511   2.6737   2.7469   2.8104   2.8587   2.9827   3.0359
     3.1651   3.2147   3.2256   3.2847   3.3337   3.3665   3.3869   3.4195
     3.4580   3.4868   3.5548   3.6880   3.7187   3.7626   3.8280   3.8455
     3.9705   4.0903   4.1124   4.1677   4.1970   4.2668   4.2770   4.3157
     4.3398   4.4018   4.4337   4.4644   4.5734   4.5977   4.6510   4.7619
     4.8463   4.9123   4.9443   5.0414   5.0609   5.0905   5.1311   5.1744
     5.2709   5.3197   5.4051   5.4451   5.4486   5.4752   5.5467   5.6292
     5.7392   5.8102   5.8384   5.8943   5.9417   5.9597   6.0126   6.0472
     6.1290   6.1942   6.2632   6.3547   6.4553   6.4885   6.5396   6.6159
     8.5651   8.6404   8.7454   8.8918   9.0945   9.1786  10.3696  10.4385
    10.4793  10.6007  10.6971  10.7437  10.7566  10.7813  10.8158  10.8560
    10.8739  10.9142  11.3051  11.3857  11.4059  11.4587  11.4804  11.5486
    11.6468  11.6843  11.7326  11.8109  11.8328  11.8816  12.5765  12.6411
    12.7941  12.8805  12.9450  12.9893  13.0564  13.1058  13.1989  13.2006
    13.2460  13.2724  13.3155  13.3922  13.4382  13.4899  13.5094  13.5596
    13.6816  13.7215  15.1086  15.6274  15.8372  16.0244  16.3023  16.6903
    16.8353  16.9679  17.0953  17.1179  17.2604  17.3213  17.4406  17.6505
    17.7286  17.9671  18.0800  18.4441  18.6328  18.7521  18.8003  18.9973
    19.2417  19.4055  19.5199  19.6019  19.7439  19.7835  19.8354  19.9634
    20.0010  20.1210  20.2586  20.3535  20.4105  20.4719  20.5624  20.6628
    20.9863  21.0238  21.3622  21.5706  21.5875  21.7532  21.8958  21.9138
    21.9419  22.0188  22.0873  22.1944  22.2073  22.3165  22.3969  22.4378
    22.5762  22.6054  22.7212  22.8143  22.9004  22.9691  23.0698  23.1018
    23.1914  23.2592  23.3059  23.3969  23.5071  23.6077  23.6456  23.6903
    23.7917  23.8778  24.0762  24.1197  24.2343  24.2647  24.3754  24.4475
    24.5477  24.6898  24.7848  24.9746  25.0817  25.2199  25.4617  25.6159
    25.8831  25.9895  26.1911  26.4007  26.4668  26.5408  26.6862  26.8443
    27.2279  27.6568  27.8377  28.0229  28.0503  28.2520  28.3561  28.5158
    28.6777  28.8857  29.3134  29.5075  29.5694  29.5918  29.7712  29.8317
    30.0504  30.1913  30.5375  30.8718  30.9087  30.9892  31.1363  31.2563
    31.3614  31.3966  31.5692  31.5937  31.7760  31.7991  32.0550  32.2149
    32.2408  32.4034  32.5529  32.8199  32.9994  33.1192  33.2825  33.4113
    33.6271  33.7234  33.8243  33.9611  34.0320  34.1275  34.1547  34.2885
    34.4562  34.6279  34.6498  34.7748  34.9551  35.1094  35.1952  35.5174
    35.5658  35.6040  35.7139  35.7778  35.8800  35.9498  36.1678  36.3666
    36.4597  36.5464  36.6034  36.6502  36.7423  36.7905  36.9495  37.0265
    37.1667  37.3639  37.4655  37.5060  37.5492  37.7679  37.7840  37.8247
    37.9556  38.0220  38.0712  38.2754  38.3392  38.3451  38.4312  38.4471
    38.5292  38.6336  38.7746  38.8003  38.8809  38.9093  38.9740  39.0372
    39.1653  39.2511  39.3290  39.4357  39.4518  39.5468  39.5906  39.7472
    39.8324  39.9216  39.9494  39.9742  40.1050  40.2122  40.2668  40.3321
    40.4287  40.6007  40.6778  40.7403  40.8160  40.9119  41.0256  41.0426
    41.1998  41.3006  41.3636  41.3948  41.4183  41.5821  41.6175  41.6646
    41.7757  41.8937  41.9523  42.0566  42.1516  42.2869  42.3554  42.4495
    42.5968  42.6420  42.6685  42.8728  42.9225  43.1274  43.1864  43.2590
    43.2825  43.3655  43.4051  43.4542  43.5234  43.6409  43.7223  43.9011
    43.9743  44.0121  44.0627  44.1648  44.3495  44.4166  44.4562  44.6288
    44.8237  44.9188  44.9341  45.0340  45.1253  45.1885  45.4065  45.5304
    45.5465  45.6788  45.7764  45.8530  46.0830  46.1686  46.2065  46.2652
    46.3066  46.3505  46.5280  46.5778  46.6993  46.7352  46.8959  46.9759
    47.0650  47.1718  47.1946  47.2994  47.3654  47.4526  47.6158  47.7043
    47.8126  47.8667  47.9766  48.0237  48.1189  48.1930  48.2508  48.4435
    48.4974  48.5211  48.6862  48.8365  48.9546  49.0806  49.1587  49.1982
    49.2986  49.4166  49.4429  49.4776  49.5408  49.6167  49.6974  49.7358
    49.8054  49.9151  49.9328  50.0102  50.0960  50.1612  50.2514  50.3873
    50.4478  50.5357  50.6342  50.7122  50.7626  50.9343  50.9665  51.0901
    51.1685  51.2416  51.3029  51.4703  51.5284  51.6448  51.7613  51.8273
    51.8894  51.9932  52.0566  52.1464  52.2149  52.2546  52.2657  52.4328
    52.4464  52.5578  52.6417  52.7025  52.7499  52.7713  52.8395  52.9257
    53.1268  53.1713  53.2470  53.2794  53.3476  53.4693  53.6101  53.6772
    53.7510  53.8667  53.9459  53.9861  54.0624  54.1289  54.1866  54.2203
    54.2691  54.3460  54.4553  54.5360  54.6213  54.6448  54.7358  54.7802
    54.9421  55.0214  55.1206  55.2047  55.3837  55.3998  55.4349  55.5444
    55.6063  55.7351  55.7678  55.8835  55.9946  56.1373  56.2459  56.2752
    56.3175  56.4169  56.5304  56.5966  56.6779  56.6932  56.7609  56.9225
    56.9825  57.0497  57.1424  57.1716  57.2919  57.3206  57.4034  57.5272
    57.6015  57.7110  57.8572  57.9085  57.9415  58.0008  58.0658  58.2157

          k = 0.0312 0.9562 0.0768 ( 49749 PWs)   bands (ev):

   -47.3968 -47.3957 -47.3761 -47.3639 -47.2799 -47.2509 -47.2268 -47.2261
   -47.1919 -47.1912 -25.1505 -25.1253 -25.0557 -24.9516 -24.9361 -24.9108
   -24.8893 -24.8629 -24.8566 -24.8307 -24.8163 -24.7960 -24.7869 -24.7301
   -24.7184 -24.7148 -24.7118 -24.7011 -24.5884 -24.5162 -24.5150 -24.4942
   -24.4799 -24.4438 -24.4417 -24.4377 -24.4187 -24.4171 -24.3529 -24.3519
   -10.0630  -9.9537  -9.6690  -9.3162  -9.1901  -9.1525  -9.0980  -9.0686
    -8.9663  -8.9390  -8.9190  -8.8894  -8.8541  -8.7406  -8.6968  -8.6514
    -8.5873  -8.5732  -8.5522  -8.4945  -8.4838  -8.4349  -8.4183  -8.2622
     2.2194   2.3532   2.3793   2.4349   2.4708   2.5612   2.6044   2.8920
     2.9518   3.0170   3.1612   3.1722   3.2227   3.2431   3.2872   3.3260
     3.3932   3.4253   3.4800   3.6016   3.6944   3.7491   3.7953   3.9582
     4.0334   4.0951   4.1188   4.1685   4.2381   4.2654   4.3105   4.3847
     4.4033   4.5457   4.6199   4.6525   4.8309   4.8564   4.8979   5.0224
     5.0416   5.0553   5.1991   5.2204   5.2535   5.2625   5.3261   5.3610
     5.4425   5.4677   5.5089   5.5913   5.6130   5.6684   5.6818   5.7389
     5.7768   5.8338   5.8643   5.9143   5.9727   6.1434   6.1695   6.2079
     6.2960   6.3402   6.3581   6.4799   6.5351   6.5590   6.6185   6.6335
     8.3705   8.5763   8.6329   8.7074   8.8226   8.9035  10.3224  10.4014
    10.4540  10.5001  10.5967  10.6128  10.7302  10.7614  10.7710  10.8244
    10.8373  10.8643  11.0795  11.1169  11.1285  11.3964  11.4634  11.4755
    11.7718  11.8241  11.8778  12.0225  12.0427  12.0592  12.8371  12.9478
    12.9817  13.0893  13.1414  13.1983  13.2237  13.2919  13.3368  13.3673
    13.3825  13.4450  13.4548  13.4899  13.5111  13.5490  13.6116  13.6510
    13.6695  13.7983  14.2057  14.7084  15.2984  15.6395  15.7847  15.8428
    15.8895  16.0160  16.1506  16.2667  16.7106  16.8059  17.1703  17.3248
    17.7367  18.2757  18.7490  18.8393  18.9322  19.0756  19.1355  19.2622
    19.5156  19.6063  19.7028  19.8591  19.9062  19.9808  20.0680  20.1347
    20.1785  20.2576  20.3681  20.4046  20.4587  20.5500  20.5815  20.8224
    21.0337  21.1167  21.2743  21.5018  21.5603  21.6742  21.7568  21.8556
    21.9472  21.9750  22.0608  22.1033  22.2006  22.2978  22.4264  22.4698
    22.4896  22.6024  22.6538  22.6864  22.7142  22.8424  22.9223  23.0012
    23.0576  23.1305  23.2380  23.2957  23.4409  23.5004  23.5526  23.5875
    23.6730  23.8093  23.8467  23.9530  23.9842  24.1440  24.3934  24.6370
    24.8480  24.9184  25.1453  25.4247  25.5301  25.6572  25.7515  26.0372
    26.2516  26.3972  26.5247  26.6026  26.8505  26.9353  27.0561  27.3245
    27.4010  27.6597  27.7731  27.8890  28.0490  28.2029  28.4344  28.4991
    28.5919  28.8308  28.9710  29.3191  29.4121  29.4949  29.6686  29.7364
    30.1205  30.2163  30.3328  30.8940  31.1324  31.2770  31.3825  31.5280
    31.6158  31.7369  31.8975  32.0650  32.3391  32.3688  32.6028  32.7185
    32.7650  32.8654  33.0056  33.1051  33.2094  33.3029  33.4077  33.4638
    33.5255  33.5815  33.7556  33.7976  33.8448  33.9542  34.0182  34.0906
    34.1953  34.2253  34.3764  34.4704  34.4830  34.8489  34.9948  35.0507
    35.3886  35.4825  35.6065  35.6504  35.7210  35.8921  35.9566  36.0297
    36.1979  36.2564  36.3685  36.5428  36.6595  36.7185  36.8469  36.8905
    37.0030  37.0755  37.2125  37.2865  37.3576  37.4005  37.4774  37.5819
    37.7492  37.8091  37.8411  37.9303  38.0755  38.1086  38.1987  38.2308
    38.2698  38.4076  38.4374  38.4781  38.5372  38.6276  38.7804  38.8016
    38.9651  39.0708  39.1450  39.3022  39.3392  39.4295  39.5631  39.6769
    39.7015  39.8164  39.9225  39.9976  40.0532  40.1301  40.1504  40.2809
    40.3754  40.4438  40.5555  40.7386  40.7989  41.0107  41.0661  41.2501
    41.3194  41.3534  41.4765  41.6093  41.6557  41.7201  41.8445  41.8711
    41.9461  42.0059  42.1139  42.1446  42.2223  42.2865  42.3886  42.4405
    42.5721  42.5896  42.6344  42.6857  42.9150  42.9449  43.0244  43.1637
    43.3216  43.4513  43.6541  43.7441  43.7907  43.9277  44.1203  44.1529
    44.2728  44.3592  44.4735  44.6268  44.7055  44.7393  44.8076  44.9108
    44.9943  45.1410  45.1895  45.2359  45.3741  45.5575  45.5940  45.6278
    45.6668  45.7489  45.9096  46.0937  46.1177  46.1420  46.1978  46.2988
    46.4082  46.4247  46.5047  46.5367  46.6312  46.6972  46.8150  46.9201
    47.1028  47.3289  47.4140  47.4803  47.5967  47.6444  47.6921  47.7998
    47.8282  48.0281  48.1258  48.1735  48.2031  48.2723  48.4843  48.5739
    48.6262  48.7176  48.8561  48.8865  49.0153  49.0691  49.1528  49.2082
    49.3221  49.3840  49.5025  49.5723  49.5933  49.6672  49.6982  49.8008
    49.9121  49.9489  50.0061  50.0928  50.1667  50.3320  50.4063  50.4294
    50.4990  50.6455  50.6773  50.7839  50.9297  50.9971  51.1482  51.2146
    51.2486  51.3468  51.4379  51.5329  51.5790  51.6626  51.7356  51.8046
    51.8474  51.9061  51.9265  52.0013  52.0986  52.1247  52.2810  52.3306
    52.3655  52.4352  52.4730  52.4878  52.5346  52.6027  52.6853  52.7276
    52.7656  52.8851  52.9061  52.9514  53.0460  53.1075  53.1293  53.2965
    53.3172  53.3899  53.4626  53.4830  53.5836  53.6453  53.7356  53.8076
    53.8522  54.0287  54.0752  54.0871  54.1826  54.4198  54.4469  54.5231
    54.5915  54.7817  54.8149  54.8273  55.0021  55.1446  55.3030  55.3293
    55.3861  55.3981  55.4568  55.6327  55.8102  55.9409  56.0246  56.0913
    56.1531  56.2328  56.2668  56.3927  56.5038  56.5389  56.6485  56.7116
    56.8332  56.8412  56.8963  56.9906  57.0885  57.1330  57.3681  57.4569
    57.5068  57.6225  57.7036  57.7304  57.8413  57.9280  58.0179  58.1397

          k = 0.0312 0.9562 0.2815 ( 49765 PWs)   bands (ev):

   -47.3968 -47.3957 -47.3761 -47.3639 -47.2799 -47.2509 -47.2268 -47.2261
   -47.1919 -47.1912 -25.1506 -25.1253 -25.0557 -24.9515 -24.9363 -24.9107
   -24.8893 -24.8629 -24.8568 -24.8307 -24.8163 -24.7959 -24.7869 -24.7301
   -24.7185 -24.7147 -24.7119 -24.7011 -24.5884 -24.5162 -24.5150 -24.4942
   -24.4799 -24.4438 -24.4417 -24.4377 -24.4186 -24.4171 -24.3530 -24.3518
   -10.0495  -9.9771  -9.6507  -9.3206  -9.2093  -9.1435  -9.0939  -9.0667
    -8.9592  -8.9496  -8.9152  -8.9038  -8.8418  -8.7432  -8.6924  -8.6478
    -8.5964  -8.5600  -8.5327  -8.5208  -8.4919  -8.4273  -8.4182  -8.2624
     2.2537   2.3055   2.3931   2.4437   2.5092   2.5397   2.5666   2.8783
     2.9400   3.0063   3.1338   3.2096   3.2273   3.2410   3.2862   3.3538
     3.4231   3.4256   3.5527   3.5572   3.6552   3.7599   3.8246   3.9405
     4.0028   4.0788   4.1343   4.1623   4.2186   4.2750   4.3243   4.3553
     4.4208   4.5495   4.6483   4.6983   4.7775   4.8447   4.8865   4.9595
     5.0275   5.1350   5.1856   5.1993   5.2705   5.2878   5.3261   5.3942
     5.4165   5.4635   5.4906   5.5451   5.6115   5.6287   5.7497   5.7687
     5.7828   5.8152   5.8615   5.9760   6.0246   6.0861   6.1694   6.1970
     6.2812   6.3183   6.3563   6.5019   6.5189   6.5706   6.6146   6.6328
     8.4202   8.4854   8.6756   8.7104   8.8102   8.9120  10.3058  10.4067
    10.4610  10.5377  10.5741  10.6072  10.7334  10.7447  10.7763  10.8255
    10.8382  10.8646  11.0824  11.1015  11.1405  11.4107  11.4334  11.4917
    11.7685  11.8284  11.8773  12.0227  12.0440  12.0573  12.8423  12.9627
    12.9992  13.0279  13.1497  13.1972  13.2424  13.2883  13.3282  13.3748
    13.3809  13.4278  13.4592  13.4755  13.5277  13.5767  13.5943  13.6236
    13.6992  13.8083  14.2294  14.6354  15.3469  15.5686  15.8556  15.9594
    15.9771  16.0185  16.1807  16.3432  16.3601  16.4942  17.2518  17.6789
    17.8385  18.3549  18.5786  18.6654  18.7991  19.0753  19.1657  19.3505
    19.6278  19.6799  19.7587  19.8279  19.8502  19.9739  20.0518  20.0786
    20.1886  20.2531  20.2915  20.3792  20.4329  20.5295  20.6644  20.9163
    21.0181  21.2357  21.2628  21.4426  21.4947  21.6322  21.7702  21.8659
    21.9600  22.0072  22.0377  22.1071  22.2089  22.2853  22.3358  22.4931
    22.5270  22.5691  22.6386  22.7032  22.7853  22.7928  22.9917  23.0804
    23.1086  23.1817  23.2037  23.3023  23.3435  23.4651  23.4974  23.6027
    23.6217  23.6999  23.8176  23.9593  23.9888  24.1852  24.5377  24.7175
    24.8152  25.0322  25.1269  25.3348  25.5079  25.6539  25.6770  26.0222
    26.2437  26.3700  26.5222  26.5982  26.7569  27.0663  27.2335  27.3178
    27.5140  27.5570  27.7693  27.8312  28.0578  28.2574  28.3664  28.5763
    28.6836  28.7963  28.8979  29.1027  29.2155  29.3418  29.7066  30.0088
    30.1361  30.3186  30.4665  30.4993  30.8947  31.2123  31.6818  31.7567
    31.9417  32.0370  32.1176  32.1792  32.2654  32.3432  32.5209  32.5949
    32.7617  32.8226  32.9718  33.0253  33.0995  33.2166  33.2296  33.3190
    33.5656  33.5801  33.6851  33.8085  33.8362  33.9393  34.0092  34.1452
    34.2145  34.2411  34.2692  34.3423  34.6530  34.6694  34.8201  35.0265
    35.2014  35.2994  35.3601  35.7175  35.8494  35.8934  36.0272  36.1750
    36.4432  36.4631  36.5256  36.5783  36.6865  36.7559  36.9641  37.0553
    37.0706  37.1216  37.2721  37.3137  37.4173  37.4583  37.5223  37.5979
    37.6488  37.7675  37.8815  37.9408  38.0590  38.0989  38.1692  38.2394
    38.2558  38.3758  38.4070  38.5367  38.5986  38.7096  38.8030  38.8347
    38.9414  39.0587  39.0986  39.2506  39.2687  39.3875  39.4375  39.5520
    39.6865  39.7691  39.8046  39.9927  40.0823  40.1039  40.1324  40.3457
    40.4195  40.5106  40.6140  40.6761  40.8063  40.9068  40.9180  41.0532
    41.2384  41.3451  41.4648  41.5137  41.5423  41.6078  41.6760  41.7757
    41.8375  41.9001  41.9993  42.0956  42.1599  42.2895  42.3719  42.4617
    42.5711  42.7272  42.7879  42.9095  42.9461  42.9897  43.1643  43.2614
    43.5806  43.6722  43.7233  43.8229  43.9288  44.0637  44.2896  44.3096
    44.3513  44.4484  44.4586  44.5111  44.6455  44.7289  44.8403  44.9022
    45.0427  45.0637  45.1538  45.2881  45.3110  45.3951  45.4606  45.6483
    45.6880  45.7497  45.8058  45.9215  46.0101  46.1063  46.1813  46.3011
    46.3878  46.4993  46.5793  46.6711  46.7618  46.7971  46.9579  47.0443
    47.1331  47.1781  47.2672  47.2937  47.4283  47.5691  47.7691  47.7902
    47.8383  47.9819  48.0285  48.1126  48.2715  48.2922  48.4517  48.5713
    48.6113  48.7124  48.8693  48.8797  48.9809  49.0419  49.1448  49.1674
    49.3609  49.4022  49.4820  49.5633  49.5899  49.7555  49.7805  49.8420
    49.9004  49.9891  50.0095  50.1085  50.2149  50.2943  50.3873  50.4484
    50.5320  50.5601  50.7180  50.7478  50.8236  50.9843  51.0521  51.1911
    51.2982  51.4024  51.4561  51.4922  51.5403  51.5459  51.6803  51.7157
    51.8168  51.8829  51.9586  51.9963  52.0368  52.0842  52.1606  52.1887
    52.3212  52.3712  52.4582  52.5126  52.5675  52.6533  52.7032  52.7598
    52.7956  52.8687  52.9271  53.0013  53.0703  53.0834  53.1550  53.1870
    53.2620  53.3287  53.4673  53.6274  53.6861  53.7518  53.7767  53.8873
    53.9856  54.0418  54.2184  54.3000  54.4149  54.4619  54.5535  54.6452
    54.7056  54.7613  54.9110  54.9516  55.0415  55.0949  55.2457  55.3273
    55.4018  55.4698  55.5570  55.6477  55.6908  55.7197  56.0339  56.0610
    56.1414  56.2791  56.3315  56.4001  56.4519  56.5931  56.6190  56.7149
    56.7883  56.8196  56.9287  56.9481  57.0430  57.1745  57.2775  57.4687
    57.4955  57.6058  57.6660  57.7502  57.8741  57.9016  58.0047  58.1085

          k = 0.2812 0.2345 0.0768 ( 49754 PWs)   bands (ev):

   -47.3949 -47.3943 -47.3730 -47.3665 -47.2748 -47.2593 -47.2203 -47.2197
   -47.2016 -47.2009 -25.0893 -25.0712 -25.0002 -24.9375 -24.9165 -24.8942
   -24.8736 -24.8706 -24.8438 -24.8217 -24.8125 -24.8076 -24.7804 -24.7780
   -24.7715 -24.7355 -24.7094 -24.7037 -24.5680 -24.5226 -24.5018 -24.5008
   -24.4804 -24.4693 -24.4637 -24.4558 -24.4226 -24.4207 -24.3938 -24.3918
    -9.9187  -9.8308  -9.5443  -9.3594  -9.2037  -9.1672  -9.0864  -9.0640
    -8.9998  -8.9912  -8.9333  -8.9019  -8.8776  -8.7842  -8.7389  -8.7045
    -8.6061  -8.5958  -8.5418  -8.5274  -8.4720  -8.4417  -8.4153  -8.3413
     2.4582   2.5400   2.6063   2.6439   2.6762   2.7691   2.8400   3.0136
     3.0409   3.0981   3.1080   3.2548   3.2694   3.2886   3.3551   3.3685
     3.3798   3.4705   3.5577   3.6382   3.6718   3.7436   3.7974   3.9137
     3.9907   4.0674   4.0860   4.1260   4.1851   4.2969   4.3272   4.3817
     4.4276   4.4427   4.5429   4.5909   4.7050   4.7520   4.8131   4.9124
     4.9667   4.9806   5.0221   5.0782   5.1529   5.1628   5.2207   5.2654
     5.3141   5.3546   5.4213   5.4287   5.5307   5.5679   5.6738   5.7130
     5.7891   5.8132   5.8243   5.8843   5.9278   5.9753   6.0101   6.1141
     6.1729   6.2094   6.2859   6.3825   6.4175   6.4868   6.5932   6.6233
     8.5222   8.6799   8.6971   8.8393   8.9105   9.0275  10.3984  10.4387
    10.5011  10.6093  10.6388  10.7002  10.7171  10.7719  10.8066  10.8426
    10.8648  10.9070  11.2708  11.2865  11.3533  11.4189  11.4717  11.5370
    11.7156  11.7290  11.7711  11.8196  11.8692  11.9261  12.6880  12.7553
    12.8648  12.9052  13.0072  13.0107  13.1143  13.1687  13.2060  13.2461
    13.3314  13.3638  13.3683  13.4282  13.4899  13.4956  13.5264  13.5885
    13.6042  13.7231  14.7776  15.1658  15.8793  15.9577  16.0154  16.2790
    16.5361  16.5917  16.6734  16.8137  17.0207  17.2848  17.3415  17.4947
    17.7079  17.8314  18.4971  18.6515  18.7611  18.9846  19.0970  19.2059
    19.2550  19.3385  19.6015  19.6777  19.7664  19.8514  20.0017  20.0424
    20.1252  20.1772  20.2885  20.3654  20.4652  20.5699  20.6164  20.8117
    20.8398  20.9639  21.3326  21.4075  21.6103  21.6807  21.8403  21.8798
    21.9191  22.0498  22.1179  22.1903  22.2214  22.3636  22.3946  22.4212
    22.4862  22.6178  22.6875  22.7526  22.8320  22.9235  22.9816  23.0174
    23.1283  23.2473  23.3322  23.3704  23.5215  23.5649  23.6243  23.7354
    23.8289  23.9543  24.0186  24.0326  24.1566  24.2272  24.3172  24.5609
    24.7001  24.8512  24.8779  25.0717  25.3177  25.4416  25.5047  25.6533
    25.8072  25.9809  26.4050  26.4249  26.5325  26.7979  27.0625  27.2174
    27.2594  27.3546  27.7597  27.9413  28.0210  28.1795  28.2367  28.4804
    28.6066  28.7991  29.0902  29.2059  29.5551  29.8336  29.8746  30.1039
    30.2928  30.3677  30.4898  30.6910  30.8077  30.9646  30.9959  31.3532
    31.4111  31.6877  31.8572  31.9631  32.0990  32.1994  32.3734  32.4057
    32.5010  32.6809  32.7754  32.8992  33.0749  33.1900  33.3365  33.4191
    33.5887  33.6524  33.7455  33.8631  33.9521  34.0120  34.0905  34.1625
    34.3145  34.4408  34.5247  34.5668  34.7550  34.8217  35.0392  35.0918
    35.3367  35.3527  35.5380  35.6910  35.8925  35.9176  36.0554  36.1574
    36.2438  36.4727  36.5193  36.6229  36.6755  36.7859  36.8595  36.9206
    37.1068  37.1746  37.1894  37.4550  37.5171  37.5841  37.6790  37.7574
    37.8052  37.9069  37.9858  38.0660  38.1747  38.2519  38.3331  38.4485
    38.5238  38.6432  38.7259  38.7666  38.8482  38.8794  39.0189  39.0810
    39.1550  39.2745  39.2893  39.3675  39.4439  39.5253  39.5824  39.6526
    39.7731  39.8382  39.9799  40.1198  40.1250  40.2852  40.3624  40.3961
    40.5617  40.5944  40.6984  40.8382  40.9287  41.0188  41.1295  41.2204
    41.2970  41.3768  41.4679  41.5439  41.6531  41.7832  41.8015  41.8613
    41.9612  42.0063  42.0279  42.0899  42.2145  42.2600  42.3385  42.3912
    42.4999  42.6058  42.6812  42.7604  42.8704  42.9992  43.0461  43.2037
    43.2352  43.2960  43.3944  43.4805  43.6259  43.6864  43.8576  43.9165
    44.0117  44.0778  44.1801  44.2360  44.3525  44.4992  44.6002  44.7095
    44.7754  44.7944  44.9273  45.0085  45.1366  45.2108  45.2919  45.3630
    45.3876  45.5610  45.6067  45.7955  45.8941  45.9782  46.1118  46.1742
    46.2192  46.3253  46.3807  46.5940  46.7510  46.8250  46.9983  47.0112
    47.1312  47.2199  47.2726  47.3837  47.6144  47.6839  47.7721  47.8258
    47.9037  48.0629  48.1406  48.2353  48.2743  48.3578  48.4727  48.5272
    48.5950  48.7698  48.8263  48.9456  48.9866  49.0774  49.0968  49.2018
    49.2524  49.3244  49.3277  49.4386  49.5490  49.6043  49.6942  49.7658
    49.9375  49.9690  50.0365  50.0951  50.2174  50.3529  50.3783  50.4640
    50.5561  50.6314  50.7493  50.8203  50.8337  50.9085  50.9989  51.1719
    51.2736  51.3217  51.3832  51.4917  51.5063  51.5829  51.7076  51.8065
    51.8725  51.9464  52.0432  52.0951  52.1274  52.3508  52.3576  52.3773
    52.4427  52.4817  52.5494  52.6742  52.7360  52.7682  52.8288  52.9572
    53.0171  53.0247  53.0595  53.1713  53.2310  53.2790  53.3598  53.4508
    53.4822  53.5224  53.6687  53.7337  53.8088  53.8659  53.9309  54.0201
    54.1077  54.2160  54.3057  54.3800  54.5321  54.6238  54.7286  54.7982
    54.8500  54.8866  54.9925  55.0528  55.1340  55.1837  55.2910  55.3568
    55.4578  55.6381  55.6570  55.8180  55.9206  55.9655  55.9885  56.0661
    56.2253  56.3980  56.4383  56.4897  56.5225  56.7163  56.7693  56.8785
    56.9515  57.0949  57.1320  57.2023  57.2772  57.3604  57.4413  57.5301
    57.5599  57.6426  57.7277  57.9654  58.0388  58.0654  58.1813  58.2716

          k = 0.2812 0.2345 0.2815 ( 49745 PWs)   bands (ev):

   -47.3949 -47.3943 -47.3730 -47.3665 -47.2748 -47.2593 -47.2203 -47.2197
   -47.2016 -47.2009 -25.0893 -25.0711 -25.0002 -24.9376 -24.9164 -24.8942
   -24.8737 -24.8705 -24.8439 -24.8217 -24.8125 -24.8075 -24.7804 -24.7780
   -24.7715 -24.7354 -24.7094 -24.7037 -24.5680 -24.5226 -24.5018 -24.5008
   -24.4804 -24.4692 -24.4638 -24.4558 -24.4226 -24.4207 -24.3936 -24.3920
    -9.9086  -9.8474  -9.5285  -9.3660  -9.2134  -9.1611  -9.0907  -9.0571
    -9.0086  -8.9833  -8.9379  -8.8995  -8.8778  -8.7947  -8.7267  -8.6945
    -8.6208  -8.5866  -8.5451  -8.5329  -8.4679  -8.4447  -8.4100  -8.3434
     2.4963   2.5149   2.5915   2.6054   2.7016   2.7787   2.8197   2.9883
     3.0771   3.1092   3.1453   3.2418   3.2933   3.2981   3.3145   3.3786
     3.4341   3.4561   3.5246   3.6475   3.6833   3.7140   3.8175   3.8653
     3.9582   4.0543   4.0768   4.1130   4.2081   4.2717   4.2942   4.3221
     4.4274   4.5545   4.6113   4.6311   4.7088   4.7214   4.7920   4.9120
     4.9637   5.0304   5.0533   5.1140   5.1365   5.1857   5.1925   5.2675
     5.2904   5.3393   5.3991   5.4498   5.5096   5.6059   5.6366   5.6997
     5.7721   5.8060   5.8235   5.8798   5.8936   5.9513   6.0427   6.0906
     6.1586   6.1899   6.3078   6.3821   6.4424   6.5348   6.5742   6.6422
     8.5624   8.5876   8.7496   8.8152   8.9465   9.0103  10.3963  10.4605
    10.4736  10.5944  10.6739  10.7120  10.7434  10.7469  10.7735  10.8417
    10.8686  10.9096  11.2502  11.3278  11.3320  11.4325  11.4558  11.5405
    11.7175  11.7279  11.7675  11.8196  11.8884  11.9099  12.7117  12.7444
    12.8597  12.9043  12.9931  13.0326  13.0888  13.1588  13.1893  13.2555
    13.3276  13.3437  13.3952  13.4433  13.4682  13.4890  13.5254  13.5817
    13.6821  13.7096  14.7383  15.2505  15.6671  15.8223  16.3802  16.4653
    16.5685  16.6100  16.7057  16.7843  16.8314  16.9728  17.0261  17.7161
    18.0095  18.1784  18.4175  18.5108  18.5880  18.8801  18.9933  19.2208
    19.3500  19.4538  19.5703  19.7361  19.8271  19.9208  19.9544  20.0298
    20.0369  20.2204  20.2549  20.3424  20.4515  20.5843  20.6429  20.7222
    20.8920  21.0220  21.2008  21.5483  21.6128  21.6830  21.7975  21.8526
    21.9143  22.0614  22.1186  22.2123  22.2237  22.2975  22.3605  22.4071
    22.4874  22.6316  22.6690  22.7635  22.8188  22.9306  23.0821  23.1476
    23.2014  23.2617  23.3015  23.3821  23.4790  23.5339  23.5800  23.6187
    23.6497  23.8064  24.0921  24.1395  24.2768  24.3951  24.4703  24.6129
    24.6928  24.7213  24.8532  24.9952  25.1893  25.3186  25.3306  25.7509
    25.9567  26.0286  26.2517  26.6003  26.6812  26.8608  27.0255  27.0490
    27.3452  27.5114  27.6719  27.8223  28.0450  28.1966  28.3963  28.5540
    28.6870  28.8718  28.9807  29.0973  29.3014  29.4154  29.6348  29.9547
    30.2081  30.5176  30.7345  30.7983  31.1184  31.2030  31.4238  31.4595
    31.6226  31.7231  31.7405  31.7977  31.9037  32.0823  32.1624  32.2857
    32.4785  32.6450  32.7610  33.0213  33.0616  33.2231  33.2953  33.4053
    33.5530  33.6391  33.7330  33.8890  33.9811  34.0346  34.1584  34.2880
    34.3285  34.5331  34.6052  34.6839  34.7523  34.8487  34.9247  35.0261
    35.1960  35.2312  35.3463  35.4332  35.5248  35.7492  35.8229  36.1489
    36.3058  36.4785  36.6718  36.7558  36.8733  37.0073  37.0483  37.1176
    37.1991  37.2964  37.3450  37.4137  37.4579  37.5365  37.6681  37.7786
    37.8322  37.9843  38.0185  38.1552  38.2324  38.2636  38.3590  38.4254
    38.5112  38.5451  38.6662  38.7015  38.8470  38.9450  39.0083  39.0167
    39.1188  39.1945  39.2939  39.3575  39.4175  39.4858  39.6210  39.6757
    39.8174  39.9073  39.9818  40.0750  40.1597  40.2279  40.3476  40.3591
    40.5284  40.6416  40.7953  40.8723  40.9069  41.0873  41.1448  41.1954
    41.2260  41.2581  41.3994  41.6187  41.6878  41.7561  41.8151  41.8459
    41.8742  41.9232  42.0316  42.0817  42.1692  42.2284  42.3132  42.5097
    42.5522  42.5991  42.6778  42.7627  42.8418  42.9367  43.0071  43.0281
    43.1468  43.2150  43.3176  43.3518  43.4824  43.5555  43.6728  43.8035
    43.9368  43.9948  44.1694  44.2648  44.3295  44.4296  44.6312  44.6757
    44.8467  44.9179  45.0685  45.1059  45.2114  45.2734  45.4262  45.6029
    45.7490  45.8163  45.9103  45.9415  46.0195  46.1292  46.1644  46.2910
    46.4128  46.4804  46.6241  46.6405  46.7985  46.9101  46.9556  47.0408
    47.1622  47.2709  47.3285  47.4220  47.5087  47.5695  47.6500  47.6983
    47.7906  47.8574  47.9367  48.0043  48.1051  48.2628  48.3237  48.3755
    48.4205  48.6238  48.7084  48.7915  48.9090  48.9697  49.0773  49.1193
    49.2088  49.3109  49.3835  49.4754  49.5373  49.6161  49.6797  49.7540
    49.8438  49.9443  50.0301  50.0419  50.1626  50.2208  50.3005  50.4425
    50.5128  50.6089  50.6725  50.7825  50.8765  50.9225  50.9698  51.0880
    51.2108  51.3161  51.3308  51.4989  51.5961  51.6111  51.7585  51.8716
    51.9681  52.0231  52.0920  52.2128  52.3035  52.3592  52.4949  52.5791
    52.6368  52.6573  52.7517  52.7603  52.8083  52.8833  52.9438  52.9852
    53.0395  53.1166  53.1782  53.2323  53.2773  53.3411  53.3628  53.5233
    53.5315  53.6841  53.7444  53.7827  53.8286  53.9314  54.0125  54.0914
    54.1580  54.2020  54.3185  54.3531  54.4442  54.5363  54.6208  54.7154
    54.7648  54.7894  54.8751  54.9814  55.0362  55.2694  55.3015  55.3666
    55.4083  55.4882  55.5593  55.7052  55.8343  55.9240  56.0217  56.1327
    56.1688  56.2359  56.2985  56.3327  56.5564  56.6439  56.7080  56.7518
    56.9009  56.9784  57.1027  57.1962  57.2853  57.3654  57.4409  57.5660
    57.5837  57.6348  57.8290  57.8737  57.9771  58.0364  58.1549  58.3010

          k = 0.2812 0.5232 0.0768 ( 49771 PWs)   bands (ev):

   -47.3917 -47.3913 -47.3719 -47.3679 -47.2723 -47.2627 -47.2205 -47.2198
   -47.2040 -47.2033 -25.0416 -25.0076 -24.9643 -24.9614 -24.9077 -24.8864
   -24.8670 -24.8494 -24.8254 -24.8230 -24.8123 -24.8055 -24.7993 -24.7887
   -24.7774 -24.7432 -24.7074 -24.7043 -24.5596 -24.5422 -24.5420 -24.5311
   -24.4799 -24.4735 -24.4645 -24.4619 -24.4437 -24.4357 -24.4091 -24.4065
    -9.7220  -9.6818  -9.3994  -9.3762  -9.3135  -9.2854  -9.0946  -9.0784
    -9.0594  -9.0491  -8.9269  -8.9121  -8.8226  -8.7938  -8.7627  -8.7362
    -8.6835  -8.6253  -8.5707  -8.5310  -8.4742  -8.4552  -8.4171  -8.3356
     2.7585   2.8057   2.8934   2.9336   2.9539   2.9921   3.0114   3.0651
     3.0860   3.1576   3.2275   3.2466   3.2808   3.3617   3.4037   3.4689
     3.5379   3.5401   3.6087   3.6268   3.6922   3.7662   3.8626   3.8870
     3.9077   3.9518   4.0406   4.0696   4.1064   4.1467   4.2011   4.2711
     4.3233   4.3949   4.4539   4.4687   4.5820   4.6541   4.7204   4.7997
     4.8258   4.9674   5.0043   5.0628   5.0934   5.1327   5.1392   5.2052
     5.2290   5.2723   5.2991   5.3257   5.3566   5.4091   5.4442   5.5421
     5.6017   5.7758   5.8016   5.8570   5.9543   5.9872   6.0438   6.0814
     6.0968   6.1445   6.1949   6.2461   6.2603   6.3692   6.4904   6.5469
     8.7463   8.8386   8.9312   8.9557   9.0649   9.0849  10.4281  10.4921
    10.5419  10.5964  10.6615  10.6827  10.7348  10.7596  10.8204  10.8685
    10.8874  10.8971  11.2918  11.3916  11.4320  11.4781  11.5227  11.5499
    11.6424  11.6921  11.7762  11.7952  11.8158  11.8712  12.6871  12.7663
    12.7909  12.8176  12.8905  12.9549  13.0434  13.1152  13.1392  13.1491
    13.1995  13.2795  13.2979  13.3260  13.3874  13.4081  13.4572  13.4598
    13.5432  13.5800  15.6539  15.9715  16.0276  16.2062  16.3782  16.6242
    16.8076  16.8833  17.1572  17.3972  17.4950  17.6098  17.7706  17.7890
    17.9049  18.0882  18.1825  18.3850  18.4264  18.6322  18.7345  18.8468
    18.9348  18.9984  19.4378  19.5698  19.7027  19.8393  19.8862  19.9069
    20.0125  20.1121  20.2362  20.3360  20.4562  20.5018  20.5440  20.8093
    20.9767  21.1396  21.2675  21.4160  21.4502  21.7053  21.7660  21.9018
    21.9147  22.0481  22.0817  22.0997  22.1537  22.1874  22.2981  22.3178
    22.3530  22.4180  22.6743  22.7281  22.8838  22.9360  22.9786  23.1474
    23.2194  23.2307  23.4560  23.4820  23.5749  23.6861  23.7322  23.8384
    23.9062  23.9735  24.0931  24.1574  24.2404  24.3440  24.3999  24.4881
    24.6229  24.8688  24.9521  24.9810  25.1911  25.2955  25.4030  25.5701
    25.7417  25.9411  25.9910  26.1113  26.2833  26.5723  26.6484  26.8233
    27.3914  27.6290  27.9627  28.1745  28.2219  28.3451  28.4279  28.7787
    28.9632  29.0860  29.2343  29.3087  29.3964  29.4703  29.5763  29.6594
    29.8099  29.8455  30.0887  30.1201  30.1743  30.5865  30.7987  30.9455
    31.1736  31.4488  31.5857  31.6577  31.8391  31.9960  32.2085  32.3469
    32.4726  32.6016  32.7918  32.8374  32.9970  33.2314  33.3659  33.4600
    33.5128  33.6502  33.8531  33.9548  34.0618  34.1127  34.2011  34.2593
    34.3854  34.5923  34.7032  34.8335  34.9518  35.1197  35.2660  35.3986
    35.4851  35.6915  35.8429  35.9424  36.1884  36.3002  36.4998  36.5548
    36.5906  36.7586  36.7955  36.8721  37.0030  37.0561  37.1186  37.2602
    37.3611  37.4293  37.4761  37.5852  37.6703  37.7476  37.7857  37.8366
    37.8963  38.0677  38.2623  38.2779  38.3789  38.4133  38.4953  38.5495
    38.6705  38.7279  38.8012  38.8267  38.8467  38.9464  38.9968  39.0751
    39.1612  39.2149  39.2564  39.4515  39.5338  39.6005  39.6567  39.7871
    39.8470  39.9205  40.0283  40.0657  40.1832  40.2414  40.3164  40.3719
[...]
    51.3562  51.4922  51.5094  51.6128  51.7644  51.8134  51.8438  51.9123
    52.0477  52.1238  52.1490  52.2165  52.2874  52.3438  52.4128  52.5540
    52.5864  52.6652  52.7452  52.8490  52.9048  52.9700  53.0311  53.1198
    53.2468  53.3121  53.4267  53.4523  53.5195  53.5912  53.6039  53.7022
    53.7789  53.8170  53.9045  53.9983  54.0838  54.1692  54.1946  54.2430
    54.4124  54.4588  54.5543  54.5916  54.6555  54.7160  54.8996  54.9750
    54.9865  55.1017  55.1811  55.3336  55.3692  55.4801  55.5637  55.6120
    55.7119  55.8652  55.9574  56.0046  56.0543  56.1404  56.2928  56.3808
    56.4235  56.5778  56.6122  56.6745  56.6865  56.7581  56.9020  56.9550
    57.0969  57.1712  57.2419  57.3421  57.3623  57.4655  57.5623  57.7558
    57.7698  57.8588  57.9539  58.0065  58.0593  58.0889  58.1816  58.2537

          k = 0.7812 1.1006 0.2815 ( 49742 PWs)   bands (ev):

   -47.2536 -47.2533 -47.2111 -47.2102 -46.4775 -46.4558 -46.3538 -46.3531
   -46.3299 -46.3292 -24.8243 -24.8128 -24.7493 -24.7354 -24.6889 -24.6870
   -24.6577 -24.6509 -24.6365 -24.6342 -24.5670 -24.5532 -24.5474 -24.5164
   -24.5137 -24.4127 -24.3759 -24.3727 -23.7433 -23.6742 -23.5760 -23.5746
   -23.5009 -23.4999 -23.4848 -23.4307 -23.3606 -23.3580 -23.2778 -23.2757
    -9.7263  -9.6436  -9.3916  -9.3361  -9.2734  -9.1941  -9.0849  -9.0390
    -8.9989  -8.9855  -8.8925  -8.8701  -8.8155  -8.7597  -8.7479  -8.7066
    -8.6462  -8.6070  -8.5463  -8.5009  -8.4587  -8.4452  -8.3873  -8.3174
     2.8518   2.9259   3.0169   3.1099   3.1624   3.1981   3.2140   3.2690
     3.3171   3.3619   3.3954   3.4301   3.4911   3.5592   3.5988   3.6358
     3.6447   3.7508   3.7695   3.8426   3.9079   3.9453   3.9540   4.0186
     4.0515   4.1081   4.1526   4.2137   4.2312   4.2928   4.3323   4.3806
     4.4385   4.5111   4.5456   4.6562   4.6875   4.7526   4.7919   4.8829
     4.9274   5.0113   5.0611   5.0853   5.1492   5.2393   5.2448   5.3246
     5.3520   5.3944   5.4289   5.4612   5.5358   5.5485   5.5539   5.6330
     5.7057   5.7809   5.8718   5.9342   5.9973   6.0065   6.0612   6.1414
     6.1466   6.2238   6.2538   6.3169   6.3612   6.4588   6.4798   6.5501
    10.2986  10.3455  10.4909  10.5627  10.6252  10.6530  10.7582  10.7964
    10.8172  10.8902  10.9130  11.0028  11.6560  11.7779  11.8188  12.0112
    12.0541  12.0675  12.2067  12.2501  12.3106  12.3534  12.4014  12.4183
    12.7000  12.7425  12.8125  12.8791  12.9078  12.9888  13.0265  13.0392
    13.1419  13.2032  13.2856  13.3102  13.4322  13.5222  13.5964  13.6290
    13.6748  13.7607  13.7843  13.8369  13.8439  13.8695  13.9050  13.9230
    14.0125  14.0491  15.7192  15.7779  15.9917  16.4555  16.6101  16.7752
    16.7957  16.9888  17.1124  17.4956  17.5318  17.6930  17.7674  17.9472
    18.0060  18.0517  18.2225  18.4036  18.5650  18.6565  18.9376  19.0478
    19.1294  19.2958  19.5836  19.6622  19.7780  19.8459  19.9254  20.0062
    20.1430  20.3000  20.3579  20.4325  20.5698  20.6083  20.6596  20.8665
    21.1270  21.2462  21.3064  21.3826  21.7156  21.7488  21.8698  21.9143
    22.0209  22.0713  22.1692  22.2247  22.3065  22.3437  22.4033  22.4412
    22.5125  22.6327  22.6798  22.8043  22.9018  22.9960  23.0902  23.1705
    23.3174  23.4017  23.5350  23.5851  23.7152  23.8457  23.9182  23.9611
    24.1065  24.1460  24.1941  24.2937  24.3844  24.4428  24.5162  24.6590
    24.7005  24.8665  24.9575  25.1561  25.2928  25.4309  25.6506  25.7597
    25.8940  25.9624  26.2487  26.2866  26.4595  26.9588  27.0000  27.0814
    27.4334  27.6273  27.8753  28.2083  28.3822  28.4770  28.6457  28.7971
    29.0942  29.1677  29.2723  29.4445  29.5518  29.6824  29.9508  30.0174
    30.0627  30.2487  30.3077  30.4441  30.7082  30.8448  30.9069  31.0622
    31.3902  31.5043  31.7160  31.8438  31.9973  32.1246  32.2408  32.4072
    32.4964  32.7683  32.8552  33.1860  33.2369  33.3313  33.4255  33.6227
    33.6880  33.7119  33.8934  33.9341  33.9925  34.1875  34.3175  34.4414
    34.5378  34.6588  34.9145  34.9479  35.1141  35.2257  35.3064  35.4090
    35.7060  35.8408  35.9510  36.1083  36.2990  36.3557  36.4818  36.5507
    36.7232  36.8049  36.8217  36.8654  36.9388  37.1529  37.2118  37.3387
    37.4160  37.4929  37.5911  37.6764  37.7905  37.8384  37.8761  37.9731
    38.0759  38.1783  38.2020  38.2872  38.3366  38.4976  38.5425  38.5959
    38.6822  38.7219  38.8047  38.9363  38.9738  39.0731  39.1282  39.2560
    39.2604  39.3692  39.4708  39.5591  39.6658  39.7050  39.8126  39.8922
    39.9596  40.1110  40.1871  40.2487  40.3905  40.4591  40.5266  40.5482
    40.6378  40.7238  40.7902  40.8833  41.0923  41.1091  41.2098  41.2624
    41.3283  41.3517  41.5097  41.5898  41.6337  41.7070  41.7938  41.8902
    41.9676  42.0074  42.0572  42.1738  42.2609  42.3784  42.4611  42.5149
    42.6121  42.6679  42.7974  42.8991  42.9795  43.0300  43.1925  43.2059
    43.2749  43.3651  43.4925  43.6253  43.7264  43.7951  43.8741  43.9432
    44.0697  44.1551  44.1779  44.2266  44.3339  44.4104  44.4608  44.4844
    44.6202  44.6831  44.7752  44.8066  44.8930  44.9719  45.0487  45.0885
    45.1987  45.2546  45.2960  45.4197  45.6008  45.6237  45.9214  46.0530
    46.1484  46.1743  46.2487  46.3148  46.3680  46.6501  46.8148  46.9296
    47.0780  47.1638  47.4872  47.6933  47.8316  47.9901  48.0366  48.2612
    48.3077  48.4873  48.5118  48.6535  48.7117  48.8190  48.9719  49.0219
    49.0947  49.1405  49.1464  49.2134  49.2625  49.3076  49.4704  49.5256
    49.5732  49.6538  49.7212  49.7763  49.8096  49.8613  49.9136  50.0288
    50.1085  50.1772  50.2088  50.2643  50.3097  50.4542  50.5324  50.5637
    50.6891  50.7200  50.7762  50.8356  50.9425  51.0108  51.1306  51.1482
    51.1959  51.3082  51.5180  51.5699  51.7183  51.7840  51.8604  51.9362
    52.0171  52.1339  52.1735  52.2212  52.3230  52.3776  52.4997  52.5397
    52.6297  52.6834  52.7527  52.7882  52.8619  52.9535  52.9818  53.0262
    53.1310  53.2023  53.3297  53.3816  53.4481  53.5390  53.6170  53.6368
    53.8623  53.8992  53.9257  53.9498  54.0624  54.1270  54.2054  54.2840
    54.4264  54.4423  54.4597  54.5721  54.6652  54.8071  54.8898  54.9613
    55.0981  55.1527  55.2116  55.3709  55.4317  55.4670  55.5626  55.6511
    55.7490  55.9150  55.9444  56.0100  56.0372  56.1366  56.2034  56.2338
    56.4144  56.5184  56.5955  56.6902  56.7425  56.8731  56.9427  56.9738
    57.0190  57.1754  57.2090  57.2876  57.3845  57.4432  57.4749  57.6991
    57.7641  57.8394  57.8803  57.9635  58.0381  58.1618  58.3298  58.3401

          k = 0.7812 1.3892 0.0768 ( 49729 PWs)   bands (ev):

   -47.2525 -47.2522 -47.2108 -47.2103 -46.4736 -46.4603 -46.3497 -46.3489
   -46.3344 -46.3336 -24.8455 -24.8417 -24.7439 -24.7268 -24.6999 -24.6943
   -24.6559 -24.6524 -24.6378 -24.6356 -24.5589 -24.5557 -24.5262 -24.4901
   -24.4878 -24.4397 -24.3975 -24.3939 -23.7298 -23.6869 -23.5311 -23.5298
   -23.5148 -23.5138 -23.4755 -23.4434 -23.3473 -23.3447 -23.2944 -23.2922
    -9.8329  -9.7590  -9.4495  -9.3232  -9.1871  -9.1445  -9.0431  -9.0221
    -9.0079  -8.9874  -8.8967  -8.8602  -8.8368  -8.7672  -8.7342  -8.6904
    -8.5910  -8.5849  -8.5224  -8.4907  -8.4543  -8.4042  -8.3802  -8.3688
     2.6697   2.7876   2.9385   2.9598   3.0385   3.1160   3.1489   3.2163
     3.2339   3.2667   3.3107   3.3462   3.4027   3.5145   3.5427   3.5855
     3.6030   3.6448   3.6993   3.7875   3.8116   3.8367   3.9258   4.0211
     4.0984   4.1358   4.2136   4.2669   4.2902   4.3755   4.4103   4.4618
     4.5438   4.6183   4.6540   4.6644   4.7125   4.8575   4.9511   5.0305
     5.0659   5.0785   5.1069   5.1405   5.2172   5.2744   5.3161   5.3298
     5.4146   5.4530   5.5032   5.5211   5.5590   5.6110   5.6512   5.7466
     5.7794   5.8210   5.9132   5.9430   5.9997   6.0201   6.0324   6.1283
     6.1552   6.2554   6.2928   6.3330   6.3670   6.5301   6.5640   6.6397
    10.1925  10.2525  10.4448  10.4932  10.5250  10.5440  10.6735  10.7243
    10.7661  10.8598  10.9247  11.0364  11.8252  11.8999  11.9307  11.9733
    12.0062  12.0696  12.1794  12.2096  12.2266  12.2778  12.3938  12.4180
    12.6264  12.7220  12.7900  12.9189  12.9633  13.0345  13.0902  13.1243
    13.1588  13.2242  13.2804  13.3737  13.4011  13.4666  13.6027  13.7074
    13.7471  13.7516  13.8350  13.8688  13.9547  13.9691  13.9804  14.0057
    14.0310  14.0677  15.0181  15.5893  15.9756  16.1145  16.3426  16.4382
    16.6813  16.8307  16.9727  17.0632  17.1352  17.3664  17.5137  17.6734
    17.9590  18.0695  18.4043  18.7307  18.7822  18.9658  19.0550  19.1614
    19.3217  19.4324  19.5215  19.7422  19.9191  19.9902  20.0099  20.1178
    20.2741  20.2975  20.3459  20.4923  20.5374  20.6468  20.7308  20.8750
    20.9769  21.1654  21.4016  21.5661  21.7362  21.7470  21.8619  21.9752
    22.0235  22.1481  22.2052  22.2555  22.2987  22.3531  22.4394  22.4969
    22.5309  22.6251  22.8146  22.8627  22.9542  23.0189  23.1571  23.2113
    23.2535  23.3639  23.4125  23.5495  23.6184  23.7618  23.7799  23.8287
    23.9054  24.0413  24.1678  24.2476  24.3426  24.4331  24.5393  24.6848
    24.8902  25.0470  25.0565  25.1686  25.1991  25.5786  25.6160  25.8367
    25.9549  26.1137  26.4004  26.5744  26.8271  27.0638  27.2267  27.3326
    27.4738  27.6021  27.7216  27.9585  28.2376  28.3503  28.4273  28.7990
    28.9033  29.0459  29.3591  29.4498  29.5718  29.5786  29.8515  30.1184
    30.2638  30.5258  30.5974  30.7496  30.9516  30.9785  31.2392  31.2949
    31.5745  31.5899  31.7524  31.9738  32.1076  32.2130  32.4060  32.4366
    32.7373  33.0362  33.1868  33.1956  33.2322  33.3415  33.3906  33.6030
    33.7647  33.8983  33.8999  33.9377  34.0126  34.2279  34.2787  34.3756
    34.5415  34.5902  34.6783  34.7876  34.8755  34.9343  35.0198  35.1323
    35.3040  35.6147  35.7765  35.8769  35.9667  36.1047  36.2084  36.3193
    36.4059  36.5214  36.6252  36.7159  36.8410  36.9961  37.0717  37.1608
    37.2409  37.4136  37.4717  37.5572  37.6491  37.6908  37.7255  37.8207
    37.9719  38.0988  38.1418  38.2403  38.3011  38.4269  38.4874  38.5139
    38.6660  38.7100  38.7925  38.8901  38.9467  39.0866  39.1006  39.1430
    39.2878  39.3261  39.3858  39.4896  39.5830  39.6530  39.7211  39.8368
    39.9087  40.0932  40.1136  40.1382  40.3646  40.4091  40.4908  40.5234
    40.6448  40.7482  40.8768  41.0417  41.0734  41.2029  41.3053  41.4522
    41.4855  41.5864  41.6079  41.6713  41.7425  41.7870  41.8847  41.9789
    42.0197  42.1189  42.2055  42.2854  42.3269  42.4185  42.4833  42.5146
    42.6922  42.7509  42.8023  42.8755  42.9025  43.0309  43.1111  43.1929
    43.3393  43.4335  43.5172  43.6997  43.7312  43.8048  43.8154  43.8611
    44.0099  44.0559  44.1751  44.2110  44.2998  44.4398  44.5017  44.6097
    44.6774  44.7355  44.9342  45.0138  45.0621  45.1811  45.2924  45.3338
    45.4572  45.4907  45.6394  45.7179  45.7502  45.8719  46.0523  46.1554
    46.2886  46.3501  46.4650  46.5924  46.6906  46.7731  46.9711  47.2580
    47.3401  47.4624  47.5377  47.6549  47.8607  48.0107  48.0893  48.1029
    48.2429  48.2989  48.4090  48.4313  48.5519  48.6558  48.7329  48.7704
    48.8189  48.9419  49.0340  49.0562  49.1223  49.2974  49.3409  49.3563
    49.4288  49.4907  49.5581  49.6080  49.6749  49.7602  49.8303  49.8994
    49.9362  50.0023  50.1673  50.2062  50.3137  50.3364  50.4676  50.5749
    50.6054  50.6716  50.8166  50.9589  50.9630  51.1485  51.2360  51.2569
    51.3389  51.4375  51.5828  51.5926  51.7057  51.8829  51.9986  52.0435
    52.0998  52.2319  52.2728  52.3163  52.3944  52.4324  52.5145  52.5635
    52.6129  52.6591  52.6685  52.7369  52.8000  52.8425  52.9061  52.9853
    53.0884  53.1411  53.2047  53.2923  53.3198  53.4352  53.4617  53.5159
    53.6256  53.7304  53.8025  53.8305  53.9366  53.9876  54.0278  54.2029
    54.2152  54.2561  54.3349  54.4324  54.5410  54.6958  54.7664  54.8557
    55.0141  55.0803  55.1466  55.1889  55.2770  55.4362  55.5270  55.6389
    55.7383  55.8626  55.9405  55.9601  56.0894  56.1583  56.2434  56.3373
    56.3997  56.5160  56.6168  56.6478  56.7107  56.8513  56.9601  57.0319
    57.1196  57.1579  57.2394  57.2785  57.3844  57.4480  57.5033  57.5900
    57.7792  57.8336  57.9631  58.0779  58.2170  58.2480  58.3113  58.3426

          k = 0.7812 1.3892 0.2815 ( 49747 PWs)   bands (ev):

   -47.2525 -47.2522 -47.2108 -47.2103 -46.4736 -46.4603 -46.3497 -46.3489
   -46.3344 -46.3336 -24.8455 -24.8417 -24.7439 -24.7268 -24.6999 -24.6943
   -24.6559 -24.6524 -24.6378 -24.6357 -24.5590 -24.5556 -24.5262 -24.4902
   -24.4877 -24.4397 -24.3975 -24.3939 -23.7298 -23.6869 -23.5311 -23.5298
   -23.5148 -23.5138 -23.4755 -23.4434 -23.3473 -23.3447 -23.2944 -23.2922
    -9.8248  -9.7715  -9.4353  -9.3330  -9.1860  -9.1460  -9.0449  -9.0193
    -9.0072  -8.9877  -8.8907  -8.8616  -8.8498  -8.7713  -8.7273  -8.6860
    -8.5834  -8.5777  -8.5347  -8.5014  -8.4469  -8.3945  -8.3890  -8.3687
     2.6864   2.7679   2.9391   2.9455   3.0488   3.1121   3.1563   3.2109
     3.2361   3.2629   3.2851   3.3775   3.4415   3.5013   3.5407   3.5818
     3.6248   3.6509   3.6895   3.7429   3.7964   3.8346   3.9330   4.0330
     4.1000   4.1314   4.2144   4.2411   4.2900   4.3925   4.4443   4.4715
     4.5540   4.6365   4.6430   4.6641   4.7338   4.8468   4.9220   4.9666
     5.0127   5.0811   5.1141   5.1525   5.2189   5.3012   5.3344   5.3451
     5.4251   5.4493   5.5188   5.5342   5.5820   5.6180   5.6373   5.7199
     5.7890   5.8228   5.8857   5.9482   5.9867   6.0128   6.0318   6.1146
     6.1976   6.2489   6.2882   6.3418   6.3670   6.5077   6.5857   6.6317
    10.1945  10.2495  10.4618  10.4732  10.5118  10.5661  10.6696  10.7203
    10.7823  10.8273  10.9524  11.0285  11.8365  11.8770  11.9383  11.9787
    12.0036  12.0745  12.1844  12.2043  12.2265  12.2684  12.3998  12.4182
    12.6339  12.7117  12.7922  12.9192  12.9655  13.0411  13.0901  13.1307
    13.1486  13.2374  13.2531  13.3593  13.4149  13.4659  13.6089  13.6792
    13.7614  13.7715  13.8249  13.8714  13.9543  13.9652  13.9915  14.0266
    14.0339  14.0469  15.0985  15.4001  16.0298  16.2167  16.2622  16.4644
    16.7566  16.8453  16.9780  17.0295  17.1662  17.3390  17.4092  17.5498
    18.0641  18.1960  18.4296  18.6367  18.7840  19.0290  19.0702  19.1551
    19.2793  19.3426  19.5554  19.7778  19.8874  19.9856  20.0162  20.0968
    20.2843  20.3350  20.3863  20.4619  20.5128  20.6208  20.7287  20.8566
    21.0247  21.2804  21.3916  21.5177  21.6734  21.7335  21.8827  21.9719
    22.0241  22.1742  22.1791  22.2523  22.2816  22.3503  22.4403  22.4858
    22.5665  22.6567  22.7687  22.8288  22.9814  23.0540  23.1692  23.1793
    23.2266  23.3818  23.4026  23.5482  23.6558  23.7240  23.7715  23.8704
    23.9382  24.0531  24.1714  24.2591  24.3271  24.3753  24.5459  24.6914
    24.8968  24.9463  25.0302  25.1498  25.2323  25.5503  25.6648  25.9725
    25.9829  26.0940  26.4348  26.6367  26.8279  26.9699  27.1877  27.3721
    27.4377  27.6028  27.8078  27.9448  28.2473  28.4003  28.4062  28.7012
    28.7463  28.9930  29.2323  29.3239  29.5475  29.8548  29.8803  30.1942
    30.3841  30.4878  30.6563  30.7510  30.9148  30.9855  31.2688  31.3232
    31.4150  31.6574  31.8190  31.9992  32.1775  32.2197  32.4693  32.5100
    32.6660  32.8025  33.0470  33.1797  33.2197  33.3954  33.4393  33.5870
    33.7149  33.8085  33.8767  33.9769  34.0391  34.2751  34.3822  34.4212
    34.5811  34.6062  34.7055  34.7363  34.8540  34.9309  35.1427  35.2528
    35.3586  35.5453  35.6848  35.7644  35.8927  35.9277  36.1372  36.1788
    36.2753  36.4064  36.7236  36.7672  36.9490  37.0702  37.1573  37.2379
    37.2814  37.4169  37.5811  37.6330  37.6637  37.7141  37.7787  37.8841
    37.9438  38.0668  38.1717  38.2344  38.2692  38.4545  38.4990  38.5595
    38.6114  38.7291  38.7713  38.8527  38.8995  39.0664  39.1293  39.1707
    39.2036  39.2789  39.2900  39.4776  39.5841  39.5944  39.7634  39.8801
    39.9803  40.1072  40.1733  40.2569  40.3004  40.4320  40.6051  40.6322
    40.7320  40.8348  40.8618  40.9468  41.0173  41.1574  41.2874  41.3111
    41.4835  41.5227  41.6271  41.6628  41.7091  41.8057  41.8544  41.9294
    42.0090  42.0627  42.1239  42.1886  42.3257  42.3487  42.5125  42.5333
    42.7162  42.7772  42.8339  42.8884  42.9624  42.9966  43.0459  43.1661
    43.2693  43.3654  43.5648  43.6642  43.7378  43.8048  43.8573  44.0031
    44.0239  44.1522  44.2457  44.2671  44.3631  44.3998  44.4855  44.5809
    44.6771  44.7794  44.8705  44.9406  45.0503  45.1327  45.2878  45.3158
    45.3337  45.4616  45.4935  45.7502  45.7835  45.8894  46.0294  46.1389
    46.2294  46.5080  46.5301  46.6247  46.8567  46.8739  47.0329  47.2504
    47.3827  47.4806  47.5889  47.6075  47.8491  47.9707  48.0227  48.2097
    48.2206  48.2938  48.3727  48.4424  48.4972  48.6134  48.6374  48.7492
    48.8304  48.9323  49.0014  49.0728  49.1039  49.2472  49.2790  49.3780
    49.4314  49.5383  49.5928  49.6147  49.7127  49.7756  49.8853  49.9242
    50.0352  50.1333  50.2250  50.2313  50.2437  50.3256  50.4948  50.5889
    50.6190  50.6888  50.7193  50.9162  50.9968  51.0677  51.1807  51.2973
    51.3734  51.4565  51.5119  51.6722  51.7158  51.8138  52.0282  52.0857
    52.1145  52.1737  52.2162  52.3008  52.3523  52.4324  52.4995  52.5934
    52.6351  52.6414  52.6988  52.7254  52.8295  52.8816  52.9567  53.0224
    53.0776  53.1715  53.1939  53.2877  53.3336  53.3504  53.4182  53.4950
    53.6304  53.6661  53.7109  53.8506  53.9281  54.0018  54.0600  54.1120
    54.1631  54.2442  54.3529  54.3909  54.5981  54.6669  54.7438  54.9498
    54.9682  55.0995  55.2168  55.2475  55.3642  55.3885  55.4418  55.6209
    55.7078  55.7894  55.8046  55.9282  55.9951  56.1190  56.2274  56.2909
    56.4087  56.4837  56.5821  56.7134  56.8087  56.8737  56.9226  56.9725
    57.0203  57.1097  57.1950  57.2730  57.3663  57.4508  57.5140  57.6758
    57.7670  57.8605  57.9697  58.0186  58.0874  58.2137  58.3495  58.4614

     the Fermi energy is     9.6980 ev

     Writing output data file system.save
 
     init_run     :     10.39s CPU     10.93s WALL (       1 calls)
     electrons    :   2634.30s CPU   2649.26s WALL (       1 calls)

     Called by init_run:
     wfcinit      :      9.45s CPU      9.90s WALL (       1 calls)
     potinit      :      0.15s CPU      0.19s WALL (       1 calls)

     Called by electrons:
     c_bands      :   2634.28s CPU   2649.20s WALL (       1 calls)
     v_of_rho     :      0.03s CPU      0.03s WALL (       1 calls)

     Called by c_bands:
     init_us_2    :      0.55s CPU      0.59s WALL (      32 calls)
     cegterg      :   2510.45s CPU   2519.56s WALL (      16 calls)

     Called by sum_band:

     Called by *egterg:
     h_psi        :    486.24s CPU    489.12s WALL (     288 calls)
     g_psi        :      3.09s CPU      3.10s WALL (     256 calls)
     cdiaghg      :   1195.37s CPU   1197.08s WALL (     272 calls)

     Called by h_psi:
     h_psi:pot    :    456.33s CPU    458.87s WALL (     288 calls)
     h_psi:calbec :     71.50s CPU     71.76s WALL (     288 calls)
     vloc_psi     :    313.14s CPU    315.06s WALL (     288 calls)
     add_vuspsi   :     71.68s CPU     72.05s WALL (     288 calls)
     vhpsi        :     24.42s CPU     24.49s WALL (     288 calls)

     General routines
     calbec       :     87.82s CPU     88.14s WALL (     592 calls)
     fft          :      0.06s CPU      0.08s WALL (       5 calls)
     fftw         :    275.89s CPU    277.65s WALL (  194730 calls)
     davcio       :      0.01s CPU      5.04s WALL (      64 calls)
 
     Parallel routines
     fft_scatter  :     73.27s CPU     73.87s WALL (  194735 calls)

     Hubbard U routines
     vhpsi        :     24.42s CPU     24.49s WALL (     288 calls)
 
     PWSCF        : 45m46.93s CPU    46m28.38s WALL

 
   This run was terminated on:   2:14:41   1Jun2017            

=------------------------------------------------------------------------------=
   JOB DONE.
=------------------------------------------------------------------------------=
