
     Program PWSCF v.6.1 (svn rev. 13369) starts on  1Jun2017 at  0:50:53 

     This program is part of the open-source Quantum ESPRESSO suite
     for quantum simulation of materials; please cite
         "P. Giannozzi et al., J. Phys.:Condens. Matter 21 395502 (2009);
          URL http://www.quantum-espresso.org", 
     in publications or presentations arising from this work. More details at
     http://www.quantum-espresso.org/quote

     Parallel version (MPI & OpenMP), running on      36 processor cores
     Number of MPI processes:                36
     Threads/MPI process:                     1
     K-points division:     npool     =       4
     R & G space division:  proc/nbgrp/npool/nimage =       9
     Waiting for input...
     Reading input from standard input
Warning: card &IONS ignored
Warning: card / ignored
     Message from routine read_cards :
     DEPRECATED: no units specified in CELL_PARAMETERS card

     Current dimensions of program PWSCF are:
     Max number of different atomic species (ntypx) = 10
     Max number of k-points (npk) =  40000
     Max angular momentum in pseudopotentials (lmaxx) =  3
               file 08-o.lda.fhi.UPF: wavefunction(s)  3d renormalized
               file 03-li.lda.fhi.UPF: wavefunction(s)  p f renormalized

     Subspace diagonalization in iterative solution of the eigenvalue problem:
     a serial algorithm will be used

 
     Parallelization info
     --------------------
     sticks:   dense  smooth     PW     G-vecs:    dense   smooth      PW
     Min         380     380    106                44220    44220    6532
     Max         381     381    107                44237    44237    6545
     Sum        3427    3427    955               398099   398099   58813
 


     bravais-lattice index     =            0
     lattice parameter (alat)  =      11.1683  a.u.
     unit-cell volume          =    2946.5845 (a.u.)^3
     number of atoms/cell      =           48
     number of atomic types    =            4
     number of electrons       =       278.00
     number of Kohn-Sham states=          167
     kinetic-energy cutoff     =     100.0000  Ry
     charge density cutoff     =     400.0000  Ry
     convergence threshold     =      1.1E-06
     mixing beta               =       0.3000
     number of iterations used =            8  plain     mixing
     Exchange-correlation      = SLA  PW   NOGX NOGC ( 1  4  0  0 0 0)

     celldm(1)=  11.168281  celldm(2)=   0.000000  celldm(3)=   0.000000
     celldm(4)=   0.000000  celldm(5)=   0.000000  celldm(6)=   0.000000

     crystal axes: (cart. coord. in units of alat)
               a(1) = (   1.000000   0.000000   0.000000 )  
               a(2) = (  -0.500000   0.866025   0.000000 )  
               a(3) = (   0.000000   0.000000   2.442470 )  

     reciprocal axes: (cart. coord. in units 2 pi/alat)
               b(1) = (  1.000000  0.577350  0.000000 )  
               b(2) = (  0.000000  1.154701  0.000000 )  
               b(3) = (  0.000000  0.000000  0.409422 )  


     PseudoPot. # 1 for Ti read from file:
     /hpcgpfs01/scratch/mtopsakal/paradox/OCEAN-1.2.0-IC/ti.fhi.UPF
     MD5 check sum: c4bdc3654679b6e653b810d3fa8e26c3
     Pseudo is Norm-conserving, Zval = 12.0
     Generated using FHI98PP, converted with fhi2upf.x v.5.0.2
     Using radial grid of 1156 points,  2 beta functions with: 
                l(1) =   0
                l(2) =   2

     PseudoPot. # 2 for Ti read from file:
     /hpcgpfs01/scratch/mtopsakal/paradox/OCEAN-1.2.0-IC/ti.fhi.UPF
     MD5 check sum: c4bdc3654679b6e653b810d3fa8e26c3
     Pseudo is Norm-conserving, Zval = 12.0
     Generated using FHI98PP, converted with fhi2upf.x v.5.0.2
     Using radial grid of 1156 points,  2 beta functions with: 
                l(1) =   0
                l(2) =   2

     PseudoPot. # 3 for O  read from file:
     /hpcgpfs01/scratch/mtopsakal/paradox/OCEAN-1.2.0-IC/08-o.lda.fhi.UPF
     MD5 check sum: c35f640a64c00feec7ce3b63cda5293b
     Pseudo is Norm-conserving, Zval =  6.0
     Generated by new atomic code, or converted to UPF format
     Using radial grid of  473 points,  3 beta functions with: 
                l(1) =   0
                l(2) =   1
                l(3) =   3

     PseudoPot. # 4 for Li read from file:
     /hpcgpfs01/scratch/mtopsakal/paradox/OCEAN-1.2.0-IC/03-li.lda.fhi.UPF
     MD5 check sum: 58292b5c7d2b386e0f8e504c5a35e26e
     Pseudo is Norm-conserving + core correction, Zval =  1.0
     Generated by new atomic code, or converted to UPF format
     Using radial grid of  433 points,  3 beta functions with: 
                l(1) =   0
                l(2) =   1
                l(3) =   3

     atomic species   valence    mass     pseudopotential
        Ti1           12.00    47.86700     Ti( 1.00)
        Ti2           12.00    47.86700     Ti( 1.00)
        O              6.00    15.99940     O ( 1.00)
        Li             1.00     6.94100     Li( 1.00)

     Starting magnetic structure 
     atomic species   magnetization
        Ti1          0.500
        Ti2          0.000
        O            0.000
        Li           0.000


     Simplified LDA+U calculation (l_max = 2) with parameters (eV):
     atomic species    L          U    alpha       J0     beta
        Ti1            2     4.0000   0.0000   0.0000   0.0000



     No symmetry found



   Cartesian axes

     site n.     atom                  positions (alat units)
         1           Ti1 tau(   1) = (   0.5000000   0.0000000   0.0000000  )
         2           Ti1 tau(   2) = (  -0.2500000   0.4330127   0.0000000  )
         3           Ti1 tau(   3) = (   0.0023400   0.2914002   1.6248779  )
         4           Ti1 tau(   4) = (   0.2511900   0.1477266   0.8175925  )
         5           Ti1 tau(   5) = (   0.4976600   0.5746252   0.8175925  )
         6           Ti1 tau(   6) = (   0.2488100   0.7182988   1.6248779  )
         7           Ti2 tau(   7) = (   0.4925200   0.2929937   1.6187717  )
         8           Ti2 tau(   8) = (   0.0074800   0.5730317   0.8236987  )
         9           Ti2 tau(   9) = (   0.7506250   0.1439767   2.0552167  )
        10           Ti2 tau(  10) = (  -0.2506250   0.7220487   0.3872537  )
        11           O   tau(  11) = (   0.2414500   0.4379490   0.6241733  )
        12           O   tau(  12) = (   0.2585500   0.4280764   1.8182971  )
        13           O   tau(  13) = (   0.5176400   0.5822462   0.2148641  )
        14           O   tau(  14) = (   0.2454200   0.7394125   2.2276063  )
        15           O   tau(  15) = (  -0.0176400   0.2837792   2.2276063  )
        16           O   tau(  16) = (   0.2545800   0.1266129   0.2148641  )
        17           O   tau(  17) = (  -0.0079850   0.5819604   0.2053873  )
        18           O   tau(  18) = (   0.5079850   0.2840650   2.2370831  )
        19           O   tau(  19) = (   0.5011400   0.5643022   1.4428405  )
        20           O   tau(  20) = (   0.2381300   0.7161510   0.9996299  )
        21           O   tau(  21) = (  -0.0011400   0.3017233   0.9996299  )
        22           O   tau(  22) = (   0.2618700   0.1498744   1.4428405  )
        23           O   tau(  23) = (   0.0146350   0.5689007   1.4465775  )
        24           O   tau(  24) = (   0.4853650   0.2971247   0.9958929  )
        25           O   tau(  25) = (   0.7428100   0.1484887   1.4381998  )
        26           O   tau(  26) = (  -0.2428100   0.7175367   1.0042705  )
        27           O   tau(  27) = (   0.5163350   0.0183164   1.8309002  )
        28           O   tau(  28) = (  -0.2423050   0.4563174   0.6115702  )
        29           O   tau(  29) = (  -0.0163350   0.8477090   0.6115702  )
        30           O   tau(  30) = (   0.7423050   0.4097080   1.8309002  )
        31           O   tau(  31) = (   0.7361200   0.1523512   0.1813779  )
        32           O   tau(  32) = (  -0.2361200   0.7136742   2.2610925  )
        33           O   tau(  33) = (   0.9774550   0.0130164   1.8292393  )
        34           O   tau(  34) = (  -0.4774550   0.8530090   0.6132310  )
        35           Li  tau(  35) = (   0.2500000   0.4330127   0.0000000  )
        36           Li  tau(  36) = (   0.0000000   0.0000000   1.2212352  )
        37           Li  tau(  37) = (   0.0008100   0.2832423   0.3986844  )
        38           Li  tau(  38) = (   0.2448900   0.1423226   2.0437859  )
        39           Li  tau(  39) = (   0.4991900   0.5827831   2.0437859  )
        40           Li  tau(  40) = (   0.2551100   0.7237028   0.3986844  )
        41           Li  tau(  41) = (   0.5000050   0.2886722   0.4036182  )
        42           Li  tau(  42) = (  -0.0000050   0.5773532   2.0388522  )
        43           Li  tau(  43) = (   0.5000000   0.0000000   1.2212352  )
        44           Li  tau(  44) = (  -0.2500000   0.4330127   1.2212352  )
        45           Li  tau(  45) = (   0.7463800   0.1464276   0.8180810  )
        46           Li  tau(  46) = (  -0.2463800   0.7195978   1.6243894  )
        47           Li  tau(  47) = (   0.2500000   0.4330127   1.2212352  )
        48           Li  tau(  48) = (   0.0000000   0.0000000   0.0000000  )

     number of k points=    32  gaussian smearing, width (Ry)=  0.0020
                       cart. coord. in units 2pi/alat
        k(    1) = (   0.0000000   0.0000000   0.0000000), wk =   0.0312500
        k(    2) = (   0.0000000   0.0000000  -0.2047108), wk =   0.0312500
        k(    3) = (   0.0000000   0.2886751   0.0000000), wk =   0.0312500
        k(    4) = (   0.0000000   0.2886751  -0.2047108), wk =   0.0312500
        k(    5) = (   0.0000000  -0.5773503   0.0000000), wk =   0.0312500
        k(    6) = (   0.0000000  -0.5773503  -0.2047108), wk =   0.0312500
        k(    7) = (   0.0000000  -0.2886751   0.0000000), wk =   0.0312500
        k(    8) = (   0.0000000  -0.2886751  -0.2047108), wk =   0.0312500
        k(    9) = (   0.2500000   0.1443376   0.0000000), wk =   0.0312500
        k(   10) = (   0.2500000   0.1443376  -0.2047108), wk =   0.0312500
        k(   11) = (   0.2500000   0.4330127   0.0000000), wk =   0.0312500
        k(   12) = (   0.2500000   0.4330127  -0.2047108), wk =   0.0312500
        k(   13) = (   0.2500000  -0.4330127   0.0000000), wk =   0.0312500
        k(   14) = (   0.2500000  -0.4330127  -0.2047108), wk =   0.0312500
        k(   15) = (   0.2500000  -0.1443376   0.0000000), wk =   0.0312500
        k(   16) = (   0.2500000  -0.1443376  -0.2047108), wk =   0.0312500
        k(   17) = (  -0.5000000  -0.2886751   0.0000000), wk =   0.0312500
        k(   18) = (  -0.5000000  -0.2886751  -0.2047108), wk =   0.0312500
        k(   19) = (  -0.5000000   0.0000000   0.0000000), wk =   0.0312500
        k(   20) = (  -0.5000000   0.0000000  -0.2047108), wk =   0.0312500
        k(   21) = (  -0.5000000  -0.8660254   0.0000000), wk =   0.0312500
        k(   22) = (  -0.5000000  -0.8660254  -0.2047108), wk =   0.0312500
        k(   23) = (  -0.5000000  -0.5773503   0.0000000), wk =   0.0312500
        k(   24) = (  -0.5000000  -0.5773503  -0.2047108), wk =   0.0312500
        k(   25) = (  -0.2500000  -0.1443376   0.0000000), wk =   0.0312500
        k(   26) = (  -0.2500000  -0.1443376  -0.2047108), wk =   0.0312500
        k(   27) = (  -0.2500000   0.1443376   0.0000000), wk =   0.0312500
        k(   28) = (  -0.2500000   0.1443376  -0.2047108), wk =   0.0312500
        k(   29) = (  -0.2500000  -0.7216878   0.0000000), wk =   0.0312500
        k(   30) = (  -0.2500000  -0.7216878  -0.2047108), wk =   0.0312500
        k(   31) = (  -0.2500000  -0.4330127   0.0000000), wk =   0.0312500
        k(   32) = (  -0.2500000  -0.4330127  -0.2047108), wk =   0.0312500

     Dense  grid:   398099 G-vectors     FFT dimensions: (  72,  72, 180)

     Estimated max dynamical RAM per process >     397.82MB

     Estimated total allocated dynamical RAM >   14321.57MB
     Generating pointlists ...
     new r_m :   0.1362 (alat units)  1.5206 (a.u.) for type    1
     new r_m :   0.1324 (alat units)  1.4783 (a.u.) for type    2
     new r_m :   0.1324 (alat units)  1.4783 (a.u.) for type    3
     new r_m :   0.1434 (alat units)  1.6013 (a.u.) for type    4

     Initial potential from superposition of free atoms

     starting charge  303.15396, renormalised to  278.00000
     Number of +U iterations with fixed ns =  0
     Starting occupations:
 --- enter write_ns ---
 LDA+U parameters:
U( 1)     =  4.00000000
alpha( 1) =  0.00000000
atom    1   Tr[ns(na)] (up, down, total) =   2.00000  0.00000  2.00000
   spin  1
    eigenvalues: 
  0.400  0.400  0.400  0.400  0.400
    eigenvectors:
  1.000  0.000  0.000  0.000  0.000
  0.000  1.000  0.000  0.000  0.000
  0.000  0.000  1.000  0.000  0.000
  0.000  0.000  0.000  1.000  0.000
  0.000  0.000  0.000  0.000  1.000
    occupations:
  0.400  0.000  0.000  0.000  0.000
  0.000  0.400  0.000  0.000  0.000
  0.000  0.000  0.400  0.000  0.000
  0.000  0.000  0.000  0.400  0.000
  0.000  0.000  0.000  0.000  0.400
   spin  2
    eigenvalues: 
  0.000  0.000  0.000  0.000  0.000
    eigenvectors:
  1.000  0.000  0.000  0.000  0.000
  0.000  1.000  0.000  0.000  0.000
  0.000  0.000  1.000  0.000  0.000
  0.000  0.000  0.000  1.000  0.000
  0.000  0.000  0.000  0.000  1.000
    occupations:
  0.000  0.000  0.000  0.000  0.000
  0.000  0.000  0.000  0.000  0.000
  0.000  0.000  0.000  0.000  0.000
  0.000  0.000  0.000  0.000  0.000
  0.000  0.000  0.000  0.000  0.000
atomic mag. moment =     2.000000
atom    2   Tr[ns(na)] (up, down, total) =   2.00000  0.00000  2.00000
   spin  1
    eigenvalues: 
  0.400  0.400  0.400  0.400  0.400
    eigenvectors:
  1.000  0.000  0.000  0.000  0.000
  0.000  1.000  0.000  0.000  0.000
  0.000  0.000  1.000  0.000  0.000
  0.000  0.000  0.000  1.000  0.000
  0.000  0.000  0.000  0.000  1.000
    occupations:
  0.400  0.000  0.000  0.000  0.000
  0.000  0.400  0.000  0.000  0.000
  0.000  0.000  0.400  0.000  0.000
  0.000  0.000  0.000  0.400  0.000
  0.000  0.000  0.000  0.000  0.400
   spin  2
    eigenvalues: 
  0.000  0.000  0.000  0.000  0.000
    eigenvectors:
  1.000  0.000  0.000  0.000  0.000
  0.000  1.000  0.000  0.000  0.000
  0.000  0.000  1.000  0.000  0.000
  0.000  0.000  0.000  1.000  0.000
  0.000  0.000  0.000  0.000  1.000
    occupations:
  0.000  0.000  0.000  0.000  0.000
  0.000  0.000  0.000  0.000  0.000
  0.000  0.000  0.000  0.000  0.000
  0.000  0.000  0.000  0.000  0.000
  0.000  0.000  0.000  0.000  0.000
atomic mag. moment =     2.000000
atom    3   Tr[ns(na)] (up, down, total) =   2.00000  0.00000  2.00000
   spin  1
    eigenvalues: 
  0.400  0.400  0.400  0.400  0.400
    eigenvectors:
  1.000  0.000  0.000  0.000  0.000
  0.000  1.000  0.000  0.000  0.000
  0.000  0.000  1.000  0.000  0.000
  0.000  0.000  0.000  1.000  0.000
  0.000  0.000  0.000  0.000  1.000
    occupations:
  0.400  0.000  0.000  0.000  0.000
  0.000  0.400  0.000  0.000  0.000
  0.000  0.000  0.400  0.000  0.000
  0.000  0.000  0.000  0.400  0.000
  0.000  0.000  0.000  0.000  0.400
   spin  2
    eigenvalues: 
  0.000  0.000  0.000  0.000  0.000
    eigenvectors:
  1.000  0.000  0.000  0.000  0.000
  0.000  1.000  0.000  0.000  0.000
  0.000  0.000  1.000  0.000  0.000
  0.000  0.000  0.000  1.000  0.000
  0.000  0.000  0.000  0.000  1.000
    occupations:
  0.000  0.000  0.000  0.000  0.000
  0.000  0.000  0.000  0.000  0.000
  0.000  0.000  0.000  0.000  0.000
  0.000  0.000  0.000  0.000  0.000
  0.000  0.000  0.000  0.000  0.000
atomic mag. moment =     2.000000
atom    4   Tr[ns(na)] (up, down, total) =   2.00000  0.00000  2.00000
   spin  1
    eigenvalues: 
  0.400  0.400  0.400  0.400  0.400
    eigenvectors:
  1.000  0.000  0.000  0.000  0.000
  0.000  1.000  0.000  0.000  0.000
  0.000  0.000  1.000  0.000  0.000
  0.000  0.000  0.000  1.000  0.000
  0.000  0.000  0.000  0.000  1.000
    occupations:
  0.400  0.000  0.000  0.000  0.000
  0.000  0.400  0.000  0.000  0.000
  0.000  0.000  0.400  0.000  0.000
  0.000  0.000  0.000  0.400  0.000
  0.000  0.000  0.000  0.000  0.400
   spin  2
    eigenvalues: 
  0.000  0.000  0.000  0.000  0.000
    eigenvectors:
  1.000  0.000  0.000  0.000  0.000
  0.000  1.000  0.000  0.000  0.000
  0.000  0.000  1.000  0.000  0.000
  0.000  0.000  0.000  1.000  0.000
  0.000  0.000  0.000  0.000  1.000
    occupations:
  0.000  0.000  0.000  0.000  0.000
  0.000  0.000  0.000  0.000  0.000
  0.000  0.000  0.000  0.000  0.000
  0.000  0.000  0.000  0.000  0.000
  0.000  0.000  0.000  0.000  0.000
atomic mag. moment =     2.000000
atom    5   Tr[ns(na)] (up, down, total) =   2.00000  0.00000  2.00000
   spin  1
    eigenvalues: 
  0.400  0.400  0.400  0.400  0.400
    eigenvectors:
  1.000  0.000  0.000  0.000  0.000
  0.000  1.000  0.000  0.000  0.000
  0.000  0.000  1.000  0.000  0.000
  0.000  0.000  0.000  1.000  0.000
  0.000  0.000  0.000  0.000  1.000
    occupations:
  0.400  0.000  0.000  0.000  0.000
  0.000  0.400  0.000  0.000  0.000
  0.000  0.000  0.400  0.000  0.000
  0.000  0.000  0.000  0.400  0.000
  0.000  0.000  0.000  0.000  0.400
   spin  2
    eigenvalues: 
  0.000  0.000  0.000  0.000  0.000
    eigenvectors:
  1.000  0.000  0.000  0.000  0.000
  0.000  1.000  0.000  0.000  0.000
  0.000  0.000  1.000  0.000  0.000
  0.000  0.000  0.000  1.000  0.000
  0.000  0.000  0.000  0.000  1.000
    occupations:
  0.000  0.000  0.000  0.000  0.000
  0.000  0.000  0.000  0.000  0.000
  0.000  0.000  0.000  0.000  0.000
  0.000  0.000  0.000  0.000  0.000
  0.000  0.000  0.000  0.000  0.000
atomic mag. moment =     2.000000
atom    6   Tr[ns(na)] (up, down, total) =   2.00000  0.00000  2.00000
   spin  1
    eigenvalues: 
  0.400  0.400  0.400  0.400  0.400
    eigenvectors:
  1.000  0.000  0.000  0.000  0.000
  0.000  1.000  0.000  0.000  0.000
  0.000  0.000  1.000  0.000  0.000
  0.000  0.000  0.000  1.000  0.000
  0.000  0.000  0.000  0.000  1.000
    occupations:
  0.400  0.000  0.000  0.000  0.000
  0.000  0.400  0.000  0.000  0.000
  0.000  0.000  0.400  0.000  0.000
  0.000  0.000  0.000  0.400  0.000
  0.000  0.000  0.000  0.000  0.400
   spin  2
    eigenvalues: 
  0.000  0.000  0.000  0.000  0.000
    eigenvectors:
  1.000  0.000  0.000  0.000  0.000
  0.000  1.000  0.000  0.000  0.000
  0.000  0.000  1.000  0.000  0.000
  0.000  0.000  0.000  1.000  0.000
  0.000  0.000  0.000  0.000  1.000
    occupations:
  0.000  0.000  0.000  0.000  0.000
  0.000  0.000  0.000  0.000  0.000
  0.000  0.000  0.000  0.000  0.000
  0.000  0.000  0.000  0.000  0.000
  0.000  0.000  0.000  0.000  0.000
atomic mag. moment =     2.000000
N of occupied +U levels =   12.000000
 --- exit write_ns ---
 Atomic wfc used for LDA+U Projector are NOT orthogonalized
     Starting wfc are  698 randomized atomic wfcs

     total cpu time spent up to now is      102.4 secs

     per-process dynamical memory:    47.3 Mb

     Self-consistent Calculation

     iteration #  1     ecut=   100.00 Ry     beta=0.30
     Davidson diagonalization with overlap
     ethr =  1.00E-02,  avg # of iterations =  2.0
 --- enter write_ns ---
 LDA+U parameters:
U( 1)     =  4.00000000
alpha( 1) =  0.00000000
atom    1   Tr[ns(na)] (up, down, total) =   2.05502  0.78968  2.84471
   spin  1
    eigenvalues: 
  0.290  0.317  0.452  0.464  0.531
    eigenvectors:
  0.412  0.165  0.094  0.248  0.081
  0.048  0.302  0.047  0.019  0.584
  0.014  0.122  0.176  0.651  0.036
  0.023  0.274  0.672  0.026  0.005
  0.503  0.136  0.011  0.056  0.294
    occupations:
  0.373  0.024 -0.032 -0.044 -0.067
  0.024  0.450  0.034  0.038 -0.085
 -0.032  0.034  0.444 -0.025 -0.002
 -0.044  0.038 -0.025  0.412  0.006
 -0.067 -0.085 -0.002  0.006  0.376
   spin  2
    eigenvalues: 
  0.079  0.091  0.118  0.227  0.275
    eigenvectors:
  0.540  0.083  0.351  0.004  0.021
  0.074  0.146  0.134  0.066  0.580
  0.003  0.225  0.088  0.574  0.110
  0.007  0.450  0.216  0.316  0.011
  0.375  0.096  0.211  0.040  0.278
    occupations:
  0.099  0.014 -0.003 -0.006 -0.028
  0.014  0.209  0.023  0.009 -0.078
 -0.003  0.023  0.191 -0.061 -0.008
 -0.006  0.009 -0.061  0.142  0.000
 -0.028 -0.078 -0.008  0.000  0.149
atomic mag. moment =     1.265337
atom    2   Tr[ns(na)] (up, down, total) =   2.05499  0.78967  2.84466
   spin  1
    eigenvalues: 
  0.290  0.317  0.452  0.464  0.531
    eigenvectors:
  0.412  0.165  0.093  0.249  0.081
  0.000  0.333  0.225  0.395  0.047
  0.062  0.091  0.001  0.273  0.574
  0.476  0.003  0.249  0.083  0.188
  0.049  0.407  0.433  0.000  0.110
    occupations:
  0.372  0.039 -0.005  0.080  0.004
  0.039  0.416  0.014  0.015 -0.055
 -0.005  0.014  0.478 -0.055  0.055
  0.080  0.015 -0.055  0.390  0.019
  0.004 -0.055  0.055  0.019  0.398
   spin  2
    eigenvalues: 
  0.080  0.091  0.118  0.227  0.275
    eigenvectors:
  0.541  0.082  0.352  0.004  0.021
  0.008  0.362  0.005  0.616  0.009
  0.069  0.009  0.217  0.024  0.681
  0.328  0.005  0.396  0.011  0.260
  0.055  0.542  0.029  0.344  0.029
    occupations:
  0.099  0.010 -0.011  0.027 -0.009
  0.010  0.176  0.004 -0.001 -0.065
 -0.011  0.004  0.225 -0.074  0.016
  0.027 -0.001 -0.074  0.147 -0.003
 -0.009 -0.065  0.016 -0.003  0.143
atomic mag. moment =     1.265317
atom    3   Tr[ns(na)] (up, down, total) =   3.79686  0.81683  4.61368
   spin  1
    eigenvalues: 
  0.534  0.591  0.712  0.973  0.987
    eigenvectors:
  0.007  0.000  0.564  0.062  0.367
  0.617  0.093  0.134  0.113  0.042
  0.094  0.587  0.027  0.171  0.120
  0.053  0.264  0.064  0.301  0.318
  0.229  0.056  0.210  0.353  0.153
    occupations:
  0.828 -0.044 -0.027 -0.061 -0.111
 -0.044  0.632 -0.031 -0.003  0.150
 -0.027 -0.031  0.702  0.173 -0.023
 -0.061 -0.003  0.173  0.837 -0.029
 -0.111  0.150 -0.023 -0.029  0.799
   spin  2
    eigenvalues: 
  0.084  0.095  0.123  0.240  0.275
    eigenvectors:
  0.375  0.619  0.002  0.003  0.000
  0.049  0.037  0.295  0.615  0.005
  0.267  0.150  0.043  0.026  0.515
  0.243  0.181  0.121  0.003  0.451
  0.066  0.013  0.538  0.353  0.028
    occupations:
  0.092  0.004  0.007  0.000 -0.007
  0.004  0.193  0.014  0.008 -0.059
  0.007  0.014  0.190 -0.089  0.014
  0.000  0.008 -0.089  0.177 -0.007
 -0.007 -0.059  0.014 -0.007  0.166
atomic mag. moment =     2.980031
atom    4   Tr[ns(na)] (up, down, total) =   3.79683  0.81682  4.61365
   spin  1
    eigenvalues: 
  0.534  0.591  0.712  0.973  0.987
    eigenvectors:
  0.007  0.000  0.564  0.062  0.367
  0.016  0.667  0.002  0.277  0.038
  0.695  0.014  0.160  0.007  0.123
  0.281  0.003  0.274  0.057  0.386
  0.002  0.317  0.000  0.596  0.085
    occupations:
  0.828  0.001  0.052  0.127 -0.003
  0.001  0.711  0.014 -0.006  0.178
  0.052  0.014  0.622  0.144  0.014
  0.127 -0.006  0.144  0.783  0.002
 -0.003  0.178  0.014  0.002  0.853
   spin  2
    eigenvalues: 
  0.084  0.095  0.123  0.240  0.275
    eigenvectors:
  0.376  0.618  0.002  0.003  0.000
  0.310  0.186  0.009  0.065  0.430
  0.004  0.001  0.330  0.575  0.090
  0.001  0.013  0.655  0.296  0.036
  0.309  0.182  0.004  0.062  0.443
    occupations:
  0.092 -0.004 -0.007  0.006 -0.004
 -0.004  0.179  0.005 -0.005 -0.091
 -0.007  0.005  0.204 -0.057 -0.010
  0.006 -0.005 -0.057  0.163  0.002
 -0.004 -0.091 -0.010  0.002  0.180
atomic mag. moment =     2.980017
atom    5   Tr[ns(na)] (up, down, total) =   3.79692  0.81679  4.61371
   spin  1
    eigenvalues: 
  0.534  0.591  0.712  0.973  0.987
    eigenvectors:
  0.007  0.000  0.564  0.062  0.367
  0.617  0.093  0.135  0.113  0.042
  0.094  0.588  0.027  0.171  0.119
  0.053  0.263  0.065  0.301  0.318
  0.229  0.056  0.209  0.352  0.153
    occupations:
  0.828 -0.044 -0.027 -0.061 -0.111
 -0.044  0.632 -0.031 -0.003  0.150
 -0.027 -0.031  0.702  0.173 -0.023
 -0.061 -0.003  0.173  0.837 -0.029
 -0.111  0.150 -0.023 -0.029  0.799
   spin  2
    eigenvalues: 
  0.084  0.095  0.123  0.240  0.275
    eigenvectors:
  0.378  0.616  0.003  0.003  0.000
  0.048  0.037  0.296  0.615  0.005
  0.265  0.151  0.043  0.025  0.515
  0.242  0.182  0.121  0.003  0.451
  0.066  0.013  0.538  0.354  0.028
    occupations:
  0.092  0.004  0.007  0.000 -0.007
  0.004  0.193  0.014  0.008 -0.059
  0.007  0.014  0.190 -0.089  0.014
  0.000  0.008 -0.089  0.177 -0.007
 -0.007 -0.059  0.014 -0.007  0.166
atomic mag. moment =     2.980125
atom    6   Tr[ns(na)] (up, down, total) =   3.79678  0.81689  4.61367
   spin  1
    eigenvalues: 
  0.534  0.591  0.712  0.973  0.987
    eigenvectors:
  0.007  0.000  0.564  0.062  0.367
  0.016  0.666  0.002  0.277  0.039
  0.695  0.014  0.160  0.007  0.123
  0.280  0.003  0.274  0.058  0.385
  0.002  0.317  0.000  0.596  0.086
    occupations:
  0.828  0.001  0.052  0.127 -0.003
  0.001  0.711  0.014 -0.006  0.179
  0.052  0.014  0.622  0.144  0.014
  0.127 -0.006  0.144  0.783  0.002
 -0.003  0.179  0.014  0.002  0.852
   spin  2
    eigenvalues: 
  0.084  0.095  0.123  0.240  0.275
    eigenvectors:
  0.377  0.617  0.002  0.003  0.000
  0.309  0.187  0.009  0.064  0.431
  0.005  0.001  0.330  0.576  0.089
  0.001  0.013  0.655  0.296  0.036
  0.308  0.183  0.004  0.061  0.443
    occupations:
  0.092 -0.004 -0.007  0.006 -0.004
 -0.004  0.179  0.005 -0.005 -0.091
 -0.007  0.005  0.204 -0.057 -0.010
  0.006 -0.005 -0.057  0.163  0.002
 -0.004 -0.091 -0.010  0.002  0.180
atomic mag. moment =     2.979892
N of occupied +U levels =   24.144087
 --- exit write_ns ---

     total cpu time spent up to now is      162.9 secs

     total energy              =   -1934.95489276 Ry
     Harris-Foulkes estimate   =   -1953.84909782 Ry
     estimated scf accuracy    <      45.05225399 Ry

     total magnetization       =     9.15 Bohr mag/cell
     absolute magnetization    =    19.45 Bohr mag/cell

     iteration #  2     ecut=   100.00 Ry     beta=0.30
     Davidson diagonalization with overlap
     ethr =  1.00E-02,  avg # of iterations =  7.0

     total cpu time spent up to now is      258.6 secs

     total energy              =   -1917.96739939 Ry
     Harris-Foulkes estimate   =   -1958.39474287 Ry
     estimated scf accuracy    <     531.19373891 Ry

     total magnetization       =     0.05 Bohr mag/cell
     absolute magnetization    =     4.91 Bohr mag/cell

     iteration #  3     ecut=   100.00 Ry     beta=0.30
     Davidson diagonalization with overlap
     ethr =  1.00E-02,  avg # of iterations =  5.2

     total cpu time spent up to now is      325.3 secs

     total energy              =   -1941.43210662 Ry
     Harris-Foulkes estimate   =   -1945.99641685 Ry
     estimated scf accuracy    <      22.49364357 Ry

     total magnetization       =     2.19 Bohr mag/cell
     absolute magnetization    =     6.61 Bohr mag/cell

     iteration #  4     ecut=   100.00 Ry     beta=0.30
     Davidson diagonalization with overlap
     ethr =  8.09E-03,  avg # of iterations =  3.2

     total cpu time spent up to now is      383.7 secs

     total energy              =   -1943.03049190 Ry
     Harris-Foulkes estimate   =   -1944.18183927 Ry
     estimated scf accuracy    <       6.99728913 Ry

     total magnetization       =     6.00 Bohr mag/cell
     absolute magnetization    =     9.84 Bohr mag/cell

     iteration #  5     ecut=   100.00 Ry     beta=0.30
     Davidson diagonalization with overlap
     ethr =  2.52E-03,  avg # of iterations =  6.1

     total cpu time spent up to now is      454.9 secs

     total energy              =   -1943.67262094 Ry
     Harris-Foulkes estimate   =   -1943.72453882 Ry
     estimated scf accuracy    <       3.31017819 Ry

     total magnetization       =     6.00 Bohr mag/cell
     absolute magnetization    =     9.94 Bohr mag/cell

     iteration #  6     ecut=   100.00 Ry     beta=0.30
     Davidson diagonalization with overlap
     ethr =  1.19E-03,  avg # of iterations =  4.7

     total cpu time spent up to now is      518.3 secs

     total energy              =   -1943.70893005 Ry
     Harris-Foulkes estimate   =   -1943.78331633 Ry
     estimated scf accuracy    <       2.26757585 Ry

     total magnetization       =     6.00 Bohr mag/cell
     absolute magnetization    =     9.15 Bohr mag/cell

     iteration #  7     ecut=   100.00 Ry     beta=0.30
     Davidson diagonalization with overlap
     ethr =  8.16E-04,  avg # of iterations =  7.0

     total cpu time spent up to now is      586.3 secs

     total energy              =   -1943.76666841 Ry
     Harris-Foulkes estimate   =   -1943.88979481 Ry
     estimated scf accuracy    <       2.44697427 Ry

     total magnetization       =     5.88 Bohr mag/cell
     absolute magnetization    =     8.72 Bohr mag/cell

     iteration #  8     ecut=   100.00 Ry     beta=0.30
     Davidson diagonalization with overlap
     ethr =  8.16E-04,  avg # of iterations =  2.5

     total cpu time spent up to now is      643.3 secs

     total energy              =   -1943.89322803 Ry
     Harris-Foulkes estimate   =   -1943.91653993 Ry
     estimated scf accuracy    <       1.72655696 Ry

     total magnetization       =     5.15 Bohr mag/cell
     absolute magnetization    =     7.88 Bohr mag/cell

     iteration #  9     ecut=   100.00 Ry     beta=0.30
     Davidson diagonalization with overlap
     ethr =  6.21E-04,  avg # of iterations =  1.2

     total cpu time spent up to now is      692.1 secs

     total energy              =   -1943.91557637 Ry
     Harris-Foulkes estimate   =   -1943.91660583 Ry
     estimated scf accuracy    <       1.05861036 Ry

     total magnetization       =     5.73 Bohr mag/cell
     absolute magnetization    =     8.23 Bohr mag/cell

     iteration # 10     ecut=   100.00 Ry     beta=0.30
     Davidson diagonalization with overlap
     ethr =  3.81E-04,  avg # of iterations =  1.3

     total cpu time spent up to now is      742.7 secs

     total energy              =   -1943.93809111 Ry
     Harris-Foulkes estimate   =   -1943.93023051 Ry
     estimated scf accuracy    <       0.72748067 Ry

     total magnetization       =     5.88 Bohr mag/cell
     absolute magnetization    =     8.30 Bohr mag/cell

     iteration # 11     ecut=   100.00 Ry     beta=0.30
     Davidson diagonalization with overlap
     ethr =  2.62E-04,  avg # of iterations =  3.4

     total cpu time spent up to now is      804.2 secs

     total energy              =   -1943.98990206 Ry
     Harris-Foulkes estimate   =   -1943.96309216 Ry
     estimated scf accuracy    <       0.25470118 Ry

     total magnetization       =     6.00 Bohr mag/cell
     absolute magnetization    =     8.23 Bohr mag/cell

     iteration # 12     ecut=   100.00 Ry     beta=0.30
     Davidson diagonalization with overlap
     ethr =  9.16E-05,  avg # of iterations =  7.0

     total cpu time spent up to now is      882.6 secs

     total energy              =   -1944.01977283 Ry
     Harris-Foulkes estimate   =   -1944.00498200 Ry
     estimated scf accuracy    <       0.21867796 Ry

     total magnetization       =     6.00 Bohr mag/cell
     absolute magnetization    =     7.84 Bohr mag/cell

     iteration # 13     ecut=   100.00 Ry     beta=0.30
     Davidson diagonalization with overlap
     ethr =  7.87E-05,  avg # of iterations =  1.0

     total cpu time spent up to now is      929.9 secs

     total energy              =   -1944.06777814 Ry
     Harris-Foulkes estimate   =   -1944.02249862 Ry
     estimated scf accuracy    <       0.16188554 Ry

     total magnetization       =     6.00 Bohr mag/cell
     absolute magnetization    =     7.73 Bohr mag/cell

     iteration # 14     ecut=   100.00 Ry     beta=0.30
     Davidson diagonalization with overlap
     ethr =  5.82E-05,  avg # of iterations = 10.4

     total cpu time spent up to now is     1013.3 secs

     total energy              =   -1944.09813478 Ry
     Harris-Foulkes estimate   =   -1944.09747954 Ry
     estimated scf accuracy    <       0.03020964 Ry

     total magnetization       =     6.00 Bohr mag/cell
     absolute magnetization    =     7.10 Bohr mag/cell

     iteration # 15     ecut=   100.00 Ry     beta=0.30
     Davidson diagonalization with overlap
     c_bands:  1 eigenvalues not converged
     ethr =  1.09E-05,  avg # of iterations =  7.9

     total cpu time spent up to now is     1092.1 secs

     total energy              =   -1944.10371849 Ry
     Harris-Foulkes estimate   =   -1944.10197195 Ry
     estimated scf accuracy    <       0.01344171 Ry

     total magnetization       =     6.00 Bohr mag/cell
     absolute magnetization    =     6.93 Bohr mag/cell

     iteration # 16     ecut=   100.00 Ry     beta=0.30
     Davidson diagonalization with overlap
     c_bands:  1 eigenvalues not converged
     c_bands:  1 eigenvalues not converged
     c_bands:  1 eigenvalues not converged
     c_bands:  1 eigenvalues not converged
     c_bands:  1 eigenvalues not converged
     c_bands:  1 eigenvalues not converged
     ethr =  4.84E-06,  avg # of iterations = 14.8

     total cpu time spent up to now is     1179.1 secs

     total energy              =   -1944.10509170 Ry
     Harris-Foulkes estimate   =   -1944.10498045 Ry
     estimated scf accuracy    <       0.00469328 Ry

     total magnetization       =     6.00 Bohr mag/cell
     absolute magnetization    =     6.79 Bohr mag/cell

     iteration # 17     ecut=   100.00 Ry     beta=0.30
     Davidson diagonalization with overlap
     ethr =  1.69E-06,  avg # of iterations = 13.1

     total cpu time spent up to now is     1272.8 secs

     total energy              =   -1944.10592277 Ry
     Harris-Foulkes estimate   =   -1944.10581769 Ry
     estimated scf accuracy    <       0.00243816 Ry

     total magnetization       =     6.00 Bohr mag/cell
     absolute magnetization    =     6.71 Bohr mag/cell

     iteration # 18     ecut=   100.00 Ry     beta=0.30
     Davidson diagonalization with overlap
     ethr =  8.77E-07,  avg # of iterations = 12.0

     total cpu time spent up to now is     1358.8 secs

     total energy              =   -1944.10631683 Ry
     Harris-Foulkes estimate   =   -1944.10617293 Ry
     estimated scf accuracy    <       0.00107680 Ry

     total magnetization       =     6.00 Bohr mag/cell
     absolute magnetization    =     6.70 Bohr mag/cell

     iteration # 19     ecut=   100.00 Ry     beta=0.30
     Davidson diagonalization with overlap
     ethr =  3.87E-07,  avg # of iterations =  2.6

     total cpu time spent up to now is     1416.6 secs

     total energy              =   -1944.10644147 Ry
     Harris-Foulkes estimate   =   -1944.10638847 Ry
     estimated scf accuracy    <       0.00045378 Ry

     total magnetization       =     6.00 Bohr mag/cell
     absolute magnetization    =     6.67 Bohr mag/cell

     iteration # 20     ecut=   100.00 Ry     beta=0.30
     Davidson diagonalization with overlap
     ethr =  1.63E-07,  avg # of iterations =  9.8

     total cpu time spent up to now is     1505.5 secs

     total energy              =   -1944.10659462 Ry
     Harris-Foulkes estimate   =   -1944.10657439 Ry
     estimated scf accuracy    <       0.00012724 Ry

     total magnetization       =     6.00 Bohr mag/cell
     absolute magnetization    =     6.63 Bohr mag/cell

     iteration # 21     ecut=   100.00 Ry     beta=0.30
     Davidson diagonalization with overlap
     ethr =  4.58E-08,  avg # of iterations =  1.5

     total cpu time spent up to now is     1555.8 secs

     total energy              =   -1944.10663494 Ry
     Harris-Foulkes estimate   =   -1944.10660618 Ry
     estimated scf accuracy    <       0.00007838 Ry

     total magnetization       =     6.00 Bohr mag/cell
     absolute magnetization    =     6.62 Bohr mag/cell

     iteration # 22     ecut=   100.00 Ry     beta=0.30
     Davidson diagonalization with overlap
     ethr =  2.82E-08,  avg # of iterations =  2.3

     total cpu time spent up to now is     1614.5 secs

     total energy              =   -1944.10667909 Ry
     Harris-Foulkes estimate   =   -1944.10664796 Ry
     estimated scf accuracy    <       0.00005655 Ry

     total magnetization       =     6.00 Bohr mag/cell
     absolute magnetization    =     6.61 Bohr mag/cell

     iteration # 23     ecut=   100.00 Ry     beta=0.30
     Davidson diagonalization with overlap
     ethr =  2.03E-08,  avg # of iterations =  3.0

     total cpu time spent up to now is     1671.0 secs

     total energy              =   -1944.10672126 Ry
     Harris-Foulkes estimate   =   -1944.10669379 Ry
     estimated scf accuracy    <       0.00004162 Ry

     total magnetization       =     6.00 Bohr mag/cell
     absolute magnetization    =     6.60 Bohr mag/cell

     iteration # 24     ecut=   100.00 Ry     beta=0.30
     Davidson diagonalization with overlap
     ethr =  1.50E-08,  avg # of iterations =  3.4

     total cpu time spent up to now is     1729.9 secs

     total energy              =   -1944.10676381 Ry
     Harris-Foulkes estimate   =   -1944.10674412 Ry
     estimated scf accuracy    <       0.00003244 Ry

     total magnetization       =     6.00 Bohr mag/cell
     absolute magnetization    =     6.60 Bohr mag/cell

     iteration # 25     ecut=   100.00 Ry     beta=0.30
     Davidson diagonalization with overlap
     ethr =  1.17E-08,  avg # of iterations =  3.4

     total cpu time spent up to now is     1788.6 secs

     total energy              =   -1944.10676139 Ry
     Harris-Foulkes estimate   =   -1944.10678290 Ry
     estimated scf accuracy    <       0.00002534 Ry

     total magnetization       =     6.00 Bohr mag/cell
     absolute magnetization    =     6.60 Bohr mag/cell

     iteration # 26     ecut=   100.00 Ry     beta=0.30
     Davidson diagonalization with overlap
     ethr =  9.11E-09,  avg # of iterations =  4.2

     total cpu time spent up to now is     1855.4 secs

     total energy              =   -1944.10681845 Ry
     Harris-Foulkes estimate   =   -1944.10685158 Ry
     estimated scf accuracy    <       0.00001422 Ry

     total magnetization       =     6.00 Bohr mag/cell
     absolute magnetization    =     6.60 Bohr mag/cell

     iteration # 27     ecut=   100.00 Ry     beta=0.30
     Davidson diagonalization with overlap
     ethr =  5.12E-09,  avg # of iterations =  4.3

     total cpu time spent up to now is     1928.3 secs

     total energy              =   -1944.10687571 Ry
     Harris-Foulkes estimate   =   -1944.10689258 Ry
     estimated scf accuracy    <       0.00000728 Ry

     total magnetization       =     6.00 Bohr mag/cell
     absolute magnetization    =     6.60 Bohr mag/cell

     iteration # 28     ecut=   100.00 Ry     beta=0.30
     Davidson diagonalization with overlap
     ethr =  2.62E-09,  avg # of iterations =  4.4

     total cpu time spent up to now is     1997.6 secs

     total energy              =   -1944.10690967 Ry
     Harris-Foulkes estimate   =   -1944.10691042 Ry
     estimated scf accuracy    <       0.00000387 Ry

     total magnetization       =     6.00 Bohr mag/cell
     absolute magnetization    =     6.60 Bohr mag/cell

     iteration # 29     ecut=   100.00 Ry     beta=0.30
     Davidson diagonalization with overlap
     ethr =  1.39E-09,  avg # of iterations =  4.0

     total cpu time spent up to now is     2057.5 secs

     total energy              =   -1944.10691512 Ry
     Harris-Foulkes estimate   =   -1944.10691617 Ry
     estimated scf accuracy    <       0.00000276 Ry

     total magnetization       =     6.00 Bohr mag/cell
     absolute magnetization    =     6.60 Bohr mag/cell

     iteration # 30     ecut=   100.00 Ry     beta=0.30
     Davidson diagonalization with overlap
     ethr =  9.93E-10,  avg # of iterations =  4.0

     total cpu time spent up to now is     2119.8 secs

     total energy              =   -1944.10692016 Ry
     Harris-Foulkes estimate   =   -1944.10692058 Ry
     estimated scf accuracy    <       0.00000166 Ry

     total magnetization       =     6.00 Bohr mag/cell
     absolute magnetization    =     6.60 Bohr mag/cell

     iteration # 31     ecut=   100.00 Ry     beta=0.30
     Davidson diagonalization with overlap
     ethr =  5.97E-10,  avg # of iterations =  4.0
 
     Magnetic moment per site:
     atom:    1    charge:    8.5743    magn:    0.5760    constr:    0.0000
     atom:    2    charge:    8.5743    magn:    0.5760    constr:    0.0000
     atom:    3    charge:    8.5858    magn:    0.6257    constr:    0.0000
     atom:    4    charge:    8.5858    magn:    0.6257    constr:    0.0000
     atom:    5    charge:    8.5858    magn:    0.6257    constr:    0.0000
     atom:    6    charge:    8.5858    magn:    0.6257    constr:    0.0000
     atom:    7    charge:    8.3635    magn:    0.0883    constr:    0.0000
     atom:    8    charge:    8.3634    magn:    0.0883    constr:    0.0000
     atom:    9    charge:    8.3739    magn:    0.1017    constr:    0.0000
     atom:   10    charge:    8.3739    magn:    0.1017    constr:    0.0000
     atom:   11    charge:    5.2677    magn:    0.0139    constr:    0.0000
     atom:   12    charge:    5.2676    magn:    0.0138    constr:    0.0000
     atom:   13    charge:    5.2506    magn:    0.0063    constr:    0.0000
     atom:   14    charge:    5.2506    magn:    0.0063    constr:    0.0000
     atom:   15    charge:    5.2506    magn:    0.0063    constr:    0.0000
     atom:   16    charge:    5.2506    magn:    0.0063    constr:    0.0000
     atom:   17    charge:    5.2702    magn:    0.0090    constr:    0.0000
     atom:   18    charge:    5.2702    magn:    0.0090    constr:    0.0000
     atom:   19    charge:    5.2477    magn:    0.0098    constr:    0.0000
     atom:   20    charge:    5.2477    magn:    0.0098    constr:    0.0000
     atom:   21    charge:    5.2477    magn:    0.0098    constr:    0.0000
     atom:   22    charge:    5.2477    magn:    0.0098    constr:    0.0000
     atom:   23    charge:    5.2760    magn:   -0.0288    constr:    0.0000
     atom:   24    charge:    5.2760    magn:   -0.0290    constr:    0.0000
     atom:   25    charge:    5.2663    magn:    0.0136    constr:    0.0000
     atom:   26    charge:    5.2663    magn:    0.0137    constr:    0.0000
     atom:   27    charge:    5.2520    magn:    0.0048    constr:    0.0000
     atom:   28    charge:    5.2520    magn:    0.0049    constr:    0.0000
     atom:   29    charge:    5.2520    magn:    0.0049    constr:    0.0000
     atom:   30    charge:    5.2520    magn:    0.0048    constr:    0.0000
     atom:   31    charge:    5.2682    magn:   -0.0276    constr:    0.0000
     atom:   32    charge:    5.2682    magn:   -0.0276    constr:    0.0000
     atom:   33    charge:    5.2715    magn:   -0.0170    constr:    0.0000
     atom:   34    charge:    5.2715    magn:   -0.0171    constr:    0.0000
     atom:   35    charge:    0.1537    magn:    0.0002    constr:    0.0000
     atom:   36    charge:    0.1501    magn:    0.0003    constr:    0.0000
     atom:   37    charge:    0.1771    magn:   -0.0003    constr:    0.0000
     atom:   38    charge:    0.1771    magn:   -0.0003    constr:    0.0000
     atom:   39    charge:    0.1771    magn:   -0.0003    constr:    0.0000
     atom:   40    charge:    0.1771    magn:   -0.0003    constr:    0.0000
     atom:   41    charge:    0.1912    magn:   -0.0001    constr:    0.0000
     atom:   42    charge:    0.1913    magn:   -0.0001    constr:    0.0000
     atom:   43    charge:    0.1733    magn:   -0.0003    constr:    0.0000
     atom:   44    charge:    0.1733    magn:   -0.0003    constr:    0.0000
     atom:   45    charge:    0.1921    magn:   -0.0002    constr:    0.0000
     atom:   46    charge:    0.1921    magn:   -0.0002    constr:    0.0000
     atom:   47    charge:    0.2045    magn:   -0.0001    constr:    0.0000
     atom:   48    charge:    0.2093    magn:   -0.0000    constr:    0.0000

     total cpu time spent up to now is     2182.2 secs

     End of self-consistent calculation
 --- enter write_ns ---
 LDA+U parameters:
U( 1)     =  4.00000000
alpha( 1) =  0.00000000
atom    1   Tr[ns(na)] (up, down, total) =   1.96677  1.13044  3.09721
   spin  1
    eigenvalues: 
  0.164  0.182  0.342  0.406  0.872
    eigenvectors:
  0.144  0.496  0.003  0.015  0.341
  0.214  0.022  0.146  0.536  0.082
  0.121  0.150  0.501  0.179  0.049
  0.260  0.307  0.288  0.039  0.105
  0.260  0.025  0.061  0.231  0.422
    occupations:
  0.419  0.142  0.092  0.127  0.250
  0.142  0.378  0.073  0.069  0.030
  0.092  0.073  0.334 -0.033  0.085
  0.127  0.069 -0.033  0.305  0.150
  0.250  0.030  0.085  0.150  0.530
   spin  2
    eigenvalues: 
  0.114  0.147  0.165  0.321  0.382
    eigenvectors:
  0.435  0.073  0.480  0.002  0.010
  0.098  0.167  0.073  0.138  0.523
  0.028  0.184  0.112  0.507  0.169
  0.058  0.385  0.228  0.286  0.043
  0.381  0.191  0.106  0.066  0.255
    occupations:
  0.144  0.010 -0.004 -0.012 -0.032
  0.010  0.292  0.024 -0.001 -0.107
 -0.004  0.024  0.276 -0.085 -0.018
 -0.012 -0.001 -0.085  0.209 -0.001
 -0.032 -0.107 -0.018 -0.001  0.208
atomic mag. moment =     0.836323
atom    2   Tr[ns(na)] (up, down, total) =   1.96677  1.13044  3.09721
   spin  1
    eigenvalues: 
  0.164  0.182  0.342  0.406  0.872
    eigenvectors:
  0.144  0.495  0.003  0.015  0.341
  0.284  0.068  0.646  0.000  0.002
  0.052  0.104  0.001  0.715  0.129
  0.035  0.172  0.003  0.265  0.525
  0.486  0.161  0.347  0.005  0.002
    occupations:
  0.419 -0.008 -0.169 -0.279  0.015
 -0.008  0.282  0.017  0.019 -0.084
 -0.169  0.017  0.430  0.081  0.003
 -0.279  0.019  0.081  0.604 -0.023
  0.015 -0.084  0.003 -0.023  0.232
   spin  2
    eigenvalues: 
  0.114  0.147  0.165  0.321  0.382
    eigenvectors:
  0.435  0.073  0.480  0.002  0.010
  0.000  0.332  0.024  0.644  0.000
  0.126  0.020  0.162  0.001  0.692
  0.429  0.005  0.272  0.002  0.292
  0.010  0.571  0.063  0.350  0.005
    occupations:
  0.144  0.009 -0.007  0.033 -0.006
  0.009  0.260  0.005 -0.004 -0.082
 -0.007  0.005  0.309 -0.110  0.014
  0.033 -0.004 -0.110  0.207 -0.000
 -0.006 -0.082  0.014 -0.000  0.210
atomic mag. moment =     0.836330
atom    3   Tr[ns(na)] (up, down, total) =   1.98534  1.09325  3.07859
   spin  1
    eigenvalues: 
  0.166  0.171  0.345  0.391  0.912
    eigenvectors:
  0.687  0.125  0.001  0.002  0.186
  0.089  0.230  0.662  0.000  0.018
  0.039  0.034  0.002  0.557  0.368
  0.050  0.109  0.000  0.435  0.406
  0.135  0.502  0.336  0.006  0.022
    occupations:
  0.306  0.047 -0.188 -0.211  0.047
  0.047  0.299 -0.050 -0.065 -0.067
 -0.188 -0.050  0.567  0.178 -0.058
 -0.211 -0.065  0.178  0.568 -0.082
  0.047 -0.067 -0.058 -0.082  0.246
   spin  2
    eigenvalues: 
  0.113  0.138  0.155  0.322  0.365
    eigenvectors:
  0.259  0.738  0.001  0.002  0.001
  0.024  0.023  0.291  0.661  0.000
  0.305  0.089  0.021  0.002  0.583
  0.375  0.137  0.077  0.000  0.411
  0.036  0.013  0.611  0.334  0.005
    occupations:
  0.132  0.005  0.012  0.004 -0.006
  0.005  0.264  0.014  0.005 -0.080
  0.012  0.014  0.264 -0.119  0.012
  0.004  0.005 -0.119  0.223 -0.006
 -0.006 -0.080  0.012 -0.006  0.210
atomic mag. moment =     0.892089
atom    4   Tr[ns(na)] (up, down, total) =   1.98522  1.09328  3.07850
   spin  1
    eigenvalues: 
  0.166  0.171  0.345  0.391  0.913
    eigenvectors:
  0.683  0.126  0.001  0.002  0.190
  0.106  0.007  0.136  0.404  0.349
  0.025  0.258  0.528  0.154  0.036
  0.041  0.605  0.247  0.069  0.038
  0.145  0.005  0.089  0.372  0.388
    occupations:
  0.309  0.188  0.054  0.066  0.207
  0.188  0.541  0.092  0.080  0.168
  0.054  0.092  0.323 -0.058  0.073
  0.066  0.080 -0.058  0.257  0.100
  0.207  0.168  0.073  0.100  0.556
   spin  2
    eigenvalues: 
  0.113  0.138  0.155  0.322  0.366
    eigenvectors:
  0.262  0.735  0.001  0.002  0.001
  0.308  0.113  0.022  0.133  0.425
  0.020  0.000  0.291  0.531  0.158
  0.020  0.007  0.664  0.242  0.066
  0.389  0.145  0.023  0.093  0.350
    occupations:
  0.132 -0.008 -0.010  0.003 -0.007
 -0.008  0.252  0.007 -0.009 -0.116
 -0.010  0.007  0.276 -0.082 -0.016
  0.003 -0.009 -0.082  0.208  0.003
 -0.007 -0.116 -0.016  0.003  0.225
atomic mag. moment =     0.891935
atom    5   Tr[ns(na)] (up, down, total) =   1.98524  1.09328  3.07852
   spin  1
    eigenvalues: 
  0.166  0.171  0.345  0.391  0.913
    eigenvectors:
  0.683  0.125  0.001  0.002  0.189
  0.090  0.232  0.661  0.000  0.017
  0.041  0.033  0.002  0.557  0.367
  0.052  0.107  0.000  0.435  0.405
  0.135  0.503  0.336  0.006  0.021
    occupations:
  0.309  0.047 -0.189 -0.213  0.046
  0.047  0.298 -0.049 -0.063 -0.068
 -0.189 -0.049  0.566  0.178 -0.056
 -0.213 -0.063  0.178  0.567 -0.080
  0.046 -0.068 -0.056 -0.080  0.245
   spin  2
    eigenvalues: 
  0.113  0.138  0.155  0.322  0.366
    eigenvectors:
  0.262  0.735  0.001  0.002  0.001
  0.024  0.023  0.292  0.661  0.000
  0.304  0.090  0.020  0.002  0.583
  0.374  0.139  0.076  0.000  0.411
  0.036  0.013  0.611  0.335  0.005
    occupations:
  0.132  0.005  0.012  0.004 -0.006
  0.005  0.264  0.014  0.005 -0.080
  0.012  0.014  0.264 -0.119  0.012
  0.004  0.005 -0.119  0.223 -0.006
 -0.006 -0.080  0.012 -0.006  0.210
atomic mag. moment =     0.891959
atom    6   Tr[ns(na)] (up, down, total) =   1.98528  1.09327  3.07856
   spin  1
    eigenvalues: 
  0.166  0.171  0.345  0.391  0.912
    eigenvectors:
  0.688  0.124  0.001  0.002  0.185
  0.102  0.007  0.135  0.404  0.352
  0.025  0.258  0.529  0.153  0.035
  0.042  0.606  0.247  0.069  0.036
  0.142  0.005  0.089  0.372  0.392
    occupations:
  0.305  0.186  0.052  0.064  0.206
  0.186  0.544  0.091  0.079  0.170
  0.052  0.091  0.322 -0.059  0.072
  0.064  0.079 -0.059  0.255  0.098
  0.206  0.170  0.072  0.098  0.559
   spin  2
    eigenvalues: 
  0.113  0.138  0.155  0.322  0.365
    eigenvectors:
  0.258  0.738  0.001  0.002  0.001
  0.310  0.111  0.021  0.132  0.425
  0.020  0.000  0.290  0.531  0.158
  0.020  0.007  0.665  0.242  0.066
  0.392  0.143  0.023  0.092  0.350
    occupations:
  0.132 -0.008 -0.010  0.003 -0.007
 -0.008  0.252  0.007 -0.009 -0.116
 -0.010  0.007  0.276 -0.082 -0.016
  0.003 -0.009 -0.082  0.208  0.003
 -0.007 -0.116 -0.016  0.003  0.225
atomic mag. moment =     0.892009
N of occupied +U levels =   18.508596
 --- exit write_ns ---

 ------ SPIN UP ------------


          k = 0.0000 0.0000 0.0000 ( 49665 PWs)   bands (ev):

   -47.3984 -47.3970 -47.3775 -47.3638 -47.2814 -47.2483 -47.2287 -47.2277
   -47.1896 -47.1885 -25.1758 -25.1523 -25.0791 -24.9609 -24.9432 -24.9180
   -24.8954 -24.8725 -24.8488 -24.8427 -24.8185 -24.7907 -24.7892 -24.7204
   -24.7167 -24.7054 -24.7034 -24.6992 -24.5950 -24.5177 -24.5129 -24.4914
   -24.4770 -24.4291 -24.4224 -24.4211 -24.4164 -24.4142 -24.3389 -24.3380
   -10.1363 -10.0064  -9.7299  -9.3114  -9.1932  -9.1245  -9.1114  -9.0759
    -8.9730  -8.9251  -8.9046  -8.8767  -8.8303  -8.7434  -8.6428  -8.6140
    -8.5689  -8.5677  -8.5653  -8.4912  -8.4802  -8.4138  -8.4040  -8.2371
     2.0901   2.2235   2.2516   2.3052   2.3750   2.4581   2.4808   2.8176
     2.8181   3.0430   3.1743   3.2281   3.2478   3.2492   3.2686   3.2958
     3.3234   3.3661   3.3741   3.5337   3.6842   3.7126   3.7840   4.0508
     4.0904   4.1609   4.2320   4.2689   4.2808   4.2992   4.3401   4.3831
     4.4075   4.4079   4.6327   4.6611   4.7626   4.8318   4.9836   5.0039
     5.0167   5.0699   5.3065   5.3619   5.3636   5.4419   5.4618   5.4619
     5.4831   5.5238   5.5553   5.6092   5.6178   5.6478   5.6811   5.7067
     5.7644   5.8821   5.8958   5.9706   6.0877   6.1074   6.1506   6.3220
     6.4091   6.5368   6.5862   6.5948   6.6079   6.6202   6.6222   6.6665
     8.2543   8.5307   8.5502   8.5529   8.7278   8.8322  10.2073  10.3990
    10.4328  10.4744  10.5127  10.6114  10.7442  10.7726  10.7896  10.7961
    10.8339  10.8514  11.0524  11.0568  11.0647  11.3714  11.4566  11.4587
    11.7799  11.8162  11.8953  12.0965  12.1086  12.1360  12.8487

          k = 0.0000 0.0000-0.2047 ( 49754 PWs)   bands (ev):

   -47.3984 -47.3970 -47.3775 -47.3638 -47.2814 -47.2483 -47.2287 -47.2277
   -47.1897 -47.1885 -25.1758 -25.1522 -25.0791 -24.9609 -24.9434 -24.9178
   -24.8952 -24.8727 -24.8490 -24.8427 -24.8185 -24.7906 -24.7891 -24.7204
   -24.7166 -24.7053 -24.7035 -24.6994 -24.5950 -24.5177 -24.5129 -24.4914
   -24.4771 -24.4291 -24.4224 -24.4211 -24.4163 -24.4142 -24.3390 -24.3379
   -10.1002 -10.0644  -9.6910  -9.3176  -9.2196  -9.1226  -9.1216  -9.0529
    -8.9623  -8.9282  -8.9240  -8.9007  -8.8179  -8.6843  -8.6652  -8.6264
    -8.5677  -8.5625  -8.5399  -8.5117  -8.4977  -8.4102  -8.4016  -8.2370
     2.1326   2.2007   2.2612   2.3547   2.3848   2.3891   2.4588   2.7935
     2.8367   2.8780   3.1736   3.2334   3.2342   3.2478   3.2833   3.3080
     3.3964   3.4153   3.4606   3.5830   3.6847   3.7011   3.8457   4.0442
     4.0847   4.1561   4.1627   4.2589   4.2870   4.3017   4.3517   4.3590
     4.3769   4.4787   4.4987   4.6620   4.8005   4.8016   4.9252   5.0253
     5.0489   5.0646   5.2640   5.2737   5.3479   5.4115   5.4403   5.4621
     5.4983   5.5520   5.5558   5.6059   5.6327   5.7027   5.7191   5.7210
     5.7428   5.9165   5.9973   6.0529   6.0703   6.1751   6.2746   6.3083
     6.3521   6.3571   6.5351   6.5591   6.6000   6.6198   6.6428   6.6887
     8.3479   8.3697   8.5870   8.6229   8.6699   8.8574  10.2731  10.2888
    10.4535  10.4684  10.5360  10.6306  10.7545  10.7656  10.7728  10.7949
    10.8393  10.8510  11.0511  11.0547  11.0678  11.3813  11.4217  11.4837
    11.7672  11.8294  11.8956  12.0939  12.1124  12.1351  12.8457

          k = 0.0000 0.2887 0.0000 ( 49757 PWs)   bands (ev):

   -47.3959 -47.3947 -47.3753 -47.3656 -47.2780 -47.2547 -47.2250 -47.2239
   -47.1969 -47.1958 -25.1223 -25.0986 -25.0282 -24.9394 -24.9337 -24.9037
   -24.8835 -24.8657 -24.8516 -24.8250 -24.8146 -24.8026 -24.7843 -24.7504
   -24.7410 -24.7240 -24.7116 -24.7024 -24.5797 -24.5171 -24.5095 -24.5003
   -24.4822 -24.4589 -24.4556 -24.4490 -24.4188 -24.4177 -24.3726 -24.3719
    -9.9999  -9.8806  -9.6212  -9.3285  -9.1963  -9.1468  -9.0897  -9.0747
    -8.9720  -8.9652  -8.9360  -8.8856  -8.8578  -8.7623  -8.7425  -8.6752
    -8.6109  -8.5803  -8.5418  -8.5029  -8.4620  -8.4563  -8.4238  -8.2971
     2.3369   2.4290   2.5017   2.5137   2.6142   2.6710   2.7185   2.9576
     3.0419   3.1123   3.1633   3.1768   3.2479   3.2617   3.2900   3.3289
     3.3469   3.4096   3.5098   3.6450   3.7047   3.7514   3.7832   3.9547
     3.9791   4.0712   4.0946   4.1665   4.1978   4.2298   4.3341   4.3502
     4.4215   4.4843   4.6220   4.7228   4.7393   4.8425   4.9083   4.9279
     4.9804   5.0827   5.1252   5.1417   5.1822   5.2312   5.2954   5.3425
     5.3725   5.3917   5.4104   5.4533   5.5564   5.6556   5.7006   5.7373
     5.7709   5.8054   5.8322   5.8638   5.9826   6.0462   6.0597   6.1514
     6.1889   6.2796   6.2889   6.4375   6.4838   6.5474   6.6038   6.6310
     8.4497   8.5974   8.6738   8.7852   8.9085   8.9578  10.3911  10.4153
    10.4559  10.5853  10.6031  10.6632  10.7271  10.7607  10.7733  10.8291
    10.8473  10.8918  11.1665  11.1781  11.2299  11.4086  11.4669  11.4966
    11.7555  11.8044  11.8353  11.9152  11.9524  11.9959  12.7746

          k = 0.0000 0.2887-0.2047 ( 49720 PWs)   bands (ev):

   -47.3959 -47.3947 -47.3753 -47.3656 -47.2780 -47.2547 -47.2250 -47.2239
   -47.1969 -47.1958 -25.1224 -25.0986 -25.0282 -24.9395 -24.9337 -24.9035
   -24.8835 -24.8658 -24.8517 -24.8251 -24.8147 -24.8024 -24.7842 -24.7504
   -24.7411 -24.7239 -24.7116 -24.7025 -24.5797 -24.5171 -24.5095 -24.5003
   -24.4822 -24.4590 -24.4556 -24.4490 -24.4188 -24.4177 -24.3726 -24.3719
    -9.9704  -9.9295  -9.5833  -9.3426  -9.2049  -9.1497  -9.0999  -9.0576
    -8.9787  -8.9454  -8.9292  -8.9158  -8.8738  -8.7678  -8.7037  -8.6717
    -8.5988  -8.5617  -8.5501  -8.5415  -8.4817  -8.4346  -8.4176  -8.2991
     2.3683   2.4341   2.4912   2.5467   2.5964   2.6224   2.7131   2.9216
     3.0119   3.0963   3.1448   3.1612   3.2191   3.2858   3.3148   3.3683
     3.4381   3.4845   3.5285   3.6029   3.7213   3.7307   3.8361   3.8431
     4.0043   4.0471   4.0851   4.1334   4.1901   4.2735   4.3056   4.3455
     4.3988   4.5829   4.6154   4.6629   4.7912   4.8406   4.8826   4.9414
     4.9883   5.0469   5.1009   5.1302   5.1885   5.2303   5.2459   5.2997
     5.3814   5.4106   5.4577   5.4976   5.5973   5.6143   5.7041   5.7419
     5.7866   5.8159   5.8249   5.8944   5.9685   6.0156   6.0508   6.1603
     6.2042   6.2416   6.3488   6.4264   6.4805   6.5225   6.5936   6.6445
     8.4695   8.5510   8.6958   8.8123   8.8610   8.9804  10.3788  10.4259
    10.4731  10.5738  10.5945  10.6658  10.7195  10.7506  10.7918  10.8384
    10.8535  10.8773  11.1477  11.2082  11.2181  11.4250  11.4428  11.5050
    11.7566  11.8052  11.8347  11.9145  11.9568  11.9930  12.8016

          k = 0.0000-0.5774 0.0000 ( 49808 PWs)   bands (ev):

   -47.3932 -47.3923 -47.3704 -47.3703 -47.2679 -47.2678 -47.2166 -47.2156
   -47.2089 -47.2078 -25.0397 -25.0341 -24.9756 -24.9617 -24.8849 -24.8712
   -24.8535 -24.8522 -24.8399 -24.8292 -24.8149 -24.8079 -24.8050 -24.8042
   -24.7620 -24.7599 -24.7070 -24.7062 -24.5500 -24.5462 -24.5420 -24.5396
   -24.4774 -24.4747 -24.4533 -24.4526 -24.4332 -24.4285 -24.4108 -24.4087
    -9.7499  -9.7479  -9.4278  -9.4109  -9.2762  -9.2561  -9.0836  -9.0591
    -9.0199  -8.9907  -8.9361  -8.9341  -8.8455  -8.8195  -8.7640  -8.7375
    -8.6404  -8.6045  -8.5490  -8.5100  -8.4968  -8.4519  -8.4241  -8.3547
     2.6488   2.6511   2.7548   2.7853   2.8507   2.8597   3.0086   3.0356
     3.1333   3.1777   3.2227   3.3345   3.3511   3.3789   3.4052   3.4267
     3.4605   3.5112   3.5632   3.6142   3.7564   3.8126   3.8823   4.0008
     4.0179   4.0494   4.1543   4.1609   4.1745   4.2067   4.2621   4.3561
     4.3758   4.4214   4.4573   4.4869   4.4991   4.5529   4.5889   4.6447
     4.7429   4.7611   4.8165   4.9577   5.0307   5.0520   5.1445   5.1934
     5.2520   5.3003   5.3671   5.4516   5.4930   5.5339   5.5705   5.5954
     5.7528   5.7901   5.8316   5.9331   5.9540   6.0031   6.0283   6.1381
     6.1535   6.1908   6.2635   6.2876   6.3933   6.4350   6.5356   6.6143
     8.5958   8.6182   8.7595   8.8924   9.1168   9.1989  10.3811  10.3885
    10.5488  10.5900  10.6827  10.7251  10.7723  10.7942  10.8326  10.8654
    10.9031  10.9076  11.4030  11.4046  11.4643  11.4849  11.5265  11.5303
    11.6064  11.6121  11.6760  11.7820  11.8013  11.8736  12.5245

          k = 0.0000-0.5774-0.2047 ( 49752 PWs)   bands (ev):

   -47.3932 -47.3923 -47.3704 -47.3703 -47.2679 -47.2678 -47.2166 -47.2156
   -47.2089 -47.2078 -25.0397 -25.0341 -24.9756 -24.9617 -24.8849 -24.8712
   -24.8535 -24.8521 -24.8397 -24.8291 -24.8152 -24.8078 -24.8052 -24.8041
   -24.7619 -24.7598 -24.7071 -24.7061 -24.5500 -24.5462 -24.5419 -24.5396
   -24.4774 -24.4747 -24.4533 -24.4525 -24.4333 -24.4285 -24.4106 -24.4088
    -9.7504  -9.7469  -9.4361  -9.4048  -9.2845  -9.2427  -9.0864  -9.0554
    -9.0203  -8.9897  -8.9421  -8.9313  -8.8546  -8.8116  -8.7776  -8.7295
    -8.6265  -8.5808  -8.5797  -8.5292  -8.4868  -8.4495  -8.4128  -8.3607
     2.6176   2.7001   2.7428   2.7440   2.8371   2.8590   3.0221   3.0238
     3.1978   3.2526   3.2588   3.3121   3.3398   3.3891   3.4083   3.4461
     3.4569   3.4620   3.5308   3.6945   3.7120   3.7285   3.8493   3.8935
     4.0612   4.1019   4.1487   4.1830   4.1880   4.2332   4.2811   4.3346
     4.3629   4.3884   4.4132   4.4646   4.4713   4.5155   4.5486   4.6052
     4.8529   4.8720   4.9622   4.9816   5.0316   5.0976   5.1376   5.1871
     5.2092   5.3083   5.4108   5.4321   5.4468   5.4844   5.5329   5.6535
     5.7121   5.8026   5.8845   5.8964   5.9362   5.9686   5.9864   6.0599
     6.0603   6.1975   6.2764   6.3499   6.4677   6.4775   6.5329   6.6159
     8.5584   8.6912   8.7226   8.8924   9.1143   9.2003  10.3552  10.4546
    10.4618  10.6245  10.6898  10.7673  10.7698  10.7854  10.8188  10.8713
    10.8748  10.9205  11.3681  11.4090  11.4939  11.4966  11.5272  11.5388
    11.5846  11.6132  11.6703  11.7812  11.8103  11.8687  12.5380

          k = 0.0000-0.2887 0.0000 ( 49757 PWs)   bands (ev):

   -47.3959 -47.3947 -47.3753 -47.3656 -47.2780 -47.2547 -47.2250 -47.2239
   -47.1969 -47.1958 -25.1223 -25.0986 -25.0282 -24.9394 -24.9337 -24.9037
   -24.8835 -24.8657 -24.8516 -24.8250 -24.8146 -24.8026 -24.7843 -24.7504
   -24.7410 -24.7240 -24.7116 -24.7024 -24.5797 -24.5171 -24.5095 -24.5003
   -24.4822 -24.4589 -24.4556 -24.4490 -24.4188 -24.4177 -24.3726 -24.3719
    -9.9999  -9.8806  -9.6212  -9.3285  -9.1963  -9.1468  -9.0897  -9.0747
    -8.9720  -8.9652  -8.9360  -8.8856  -8.8578  -8.7623  -8.7425  -8.6752
    -8.6109  -8.5803  -8.5418  -8.5029  -8.4620  -8.4563  -8.4238  -8.2971
     2.3369   2.4290   2.5017   2.5137   2.6142   2.6710   2.7185   2.9576
     3.0419   3.1123   3.1633   3.1768   3.2479   3.2617   3.2900   3.3289
     3.3469   3.4096   3.5098   3.6450   3.7047   3.7514   3.7832   3.9547
     3.9791   4.0712   4.0946   4.1665   4.1978   4.2298   4.3341   4.3502
     4.4215   4.4843   4.6220   4.7228   4.7393   4.8425   4.9083   4.9279
     4.9804   5.0827   5.1252   5.1417   5.1822   5.2312   5.2954   5.3425
     5.3725   5.3917   5.4104   5.4533   5.5564   5.6556   5.7006   5.7373
     5.7709   5.8054   5.8322   5.8638   5.9826   6.0462   6.0597   6.1514
     6.1889   6.2796   6.2889   6.4375   6.4838   6.5474   6.6038   6.6310
     8.4497   8.5974   8.6738   8.7852   8.9085   8.9578  10.3911  10.4153
    10.4559  10.5853  10.6031  10.6632  10.7271  10.7607  10.7733  10.8291
    10.8473  10.8918  11.1665  11.1781  11.2299  11.4086  11.4669  11.4966
    11.7555  11.8044  11.8353  11.9152  11.9524  11.9959  12.7746

          k = 0.0000-0.2887-0.2047 ( 49720 PWs)   bands (ev):

   -47.3959 -47.3947 -47.3753 -47.3656 -47.2780 -47.2547 -47.2250 -47.2239
   -47.1969 -47.1958 -25.1224 -25.0986 -25.0282 -24.9395 -24.9337 -24.9035
   -24.8835 -24.8658 -24.8517 -24.8251 -24.8147 -24.8024 -24.7842 -24.7504
   -24.7411 -24.7239 -24.7116 -24.7025 -24.5797 -24.5171 -24.5095 -24.5003
   -24.4822 -24.4590 -24.4556 -24.4490 -24.4188 -24.4177 -24.3726 -24.3719
    -9.9704  -9.9295  -9.5833  -9.3426  -9.2049  -9.1497  -9.0999  -9.0576
    -8.9787  -8.9454  -8.9292  -8.9158  -8.8738  -8.7678  -8.7037  -8.6717
    -8.5988  -8.5617  -8.5501  -8.5415  -8.4817  -8.4346  -8.4176  -8.2991
     2.3683   2.4341   2.4912   2.5467   2.5964   2.6224   2.7131   2.9216
     3.0119   3.0963   3.1448   3.1612   3.2191   3.2858   3.3148   3.3683
     3.4381   3.4845   3.5285   3.6029   3.7213   3.7307   3.8361   3.8431
     4.0043   4.0471   4.0851   4.1334   4.1901   4.2735   4.3056   4.3455
     4.3988   4.5829   4.6154   4.6629   4.7912   4.8406   4.8826   4.9414
     4.9883   5.0469   5.1009   5.1302   5.1885   5.2303   5.2459   5.2997
     5.3814   5.4106   5.4577   5.4976   5.5973   5.6143   5.7041   5.7419
     5.7866   5.8159   5.8249   5.8944   5.9685   6.0156   6.0508   6.1603
     6.2042   6.2416   6.3488   6.4264   6.4805   6.5225   6.5936   6.6445
     8.4695   8.5510   8.6958   8.8123   8.8610   8.9804  10.3788  10.4259
    10.4731  10.5738  10.5945  10.6658  10.7195  10.7506  10.7918  10.8384
    10.8535  10.8773  11.1477  11.2082  11.2181  11.4250  11.4428  11.5050
    11.7566  11.8052  11.8347  11.9145  11.9568  11.9930  12.8016

          k = 0.2500 0.1443 0.0000 ( 49757 PWs)   bands (ev):

   -47.3959 -47.3947 -47.3753 -47.3656 -47.2780 -47.2547 -47.2250 -47.2239
   -47.1969 -47.1958 -25.1223 -25.0986 -25.0282 -24.9394 -24.9337 -24.9037
   -24.8835 -24.8657 -24.8516 -24.8250 -24.8146 -24.8026 -24.7843 -24.7504
   -24.7410 -24.7240 -24.7116 -24.7024 -24.5797 -24.5171 -24.5096 -24.5003
   -24.4822 -24.4589 -24.4556 -24.4490 -24.4188 -24.4177 -24.3726 -24.3719
    -9.9999  -9.8806  -9.6212  -9.3285  -9.1963  -9.1468  -9.0897  -9.0747
    -8.9720  -8.9652  -8.9360  -8.8856  -8.8578  -8.7623  -8.7425  -8.6752
    -8.6109  -8.5803  -8.5418  -8.5028  -8.4620  -8.4564  -8.4238  -8.2971
     2.3369   2.4290   2.5017   2.5137   2.6141   2.6710   2.7185   2.9576
     3.0420   3.1123   3.1633   3.1767   3.2480   3.2618   3.2900   3.3289
     3.3469   3.4096   3.5097   3.6450   3.7047   3.7514   3.7832   3.9547
     3.9791   4.0711   4.0946   4.1665   4.1978   4.2298   4.3341   4.3502
     4.4215   4.4843   4.6221   4.7228   4.7393   4.8425   4.9083   4.9279
     4.9804   5.0826   5.1252   5.1417   5.1822   5.2312   5.2954   5.3425
     5.3725   5.3917   5.4104   5.4533   5.5564   5.6556   5.7006   5.7373
     5.7709   5.8054   5.8322   5.8638   5.9826   6.0462   6.0597   6.1514
     6.1889   6.2796   6.2889   6.4375   6.4838   6.5474   6.6038   6.6310
     8.4498   8.5975   8.6739   8.7851   8.9084   8.9577  10.3909  10.4153
    10.4558  10.5852  10.6031  10.6632  10.7272  10.7608  10.7733  10.8291
    10.8473  10.8918  11.1665  11.1781  11.2299  11.4086  11.4669  11.4967
    11.7555  11.8044  11.8353  11.9152  11.9524  11.9959  12.7746

          k = 0.2500 0.1443-0.2047 ( 49720 PWs)   bands (ev):

   -47.3959 -47.3947 -47.3753 -47.3656 -47.2780 -47.2547 -47.2250 -47.2239
   -47.1969 -47.1958 -25.1224 -25.0986 -25.0282 -24.9395 -24.9337 -24.9035
   -24.8835 -24.8658 -24.8517 -24.8251 -24.8147 -24.8024 -24.7842 -24.7504
   -24.7411 -24.7239 -24.7116 -24.7025 -24.5797 -24.5171 -24.5095 -24.5003
   -24.4822 -24.4590 -24.4556 -24.4490 -24.4187 -24.4177 -24.3726 -24.3719
    -9.9704  -9.9295  -9.5833  -9.3426  -9.2049  -9.1497  -9.1000  -9.0577
    -8.9787  -8.9454  -8.9292  -8.9158  -8.8738  -8.7678  -8.7037  -8.6717
    -8.5988  -8.5617  -8.5501  -8.5415  -8.4817  -8.4346  -8.4176  -8.2991
     2.3683   2.4342   2.4912   2.5468   2.5964   2.6225   2.7130   2.9216
     3.0119   3.0963   3.1447   3.1612   3.2192   3.2858   3.3149   3.3683
     3.4381   3.4846   3.5285   3.6029   3.7214   3.7306   3.8361   3.8431
     4.0043   4.0471   4.0851   4.1334   4.1901   4.2735   4.3056   4.3455
     4.3988   4.5829   4.6154   4.6629   4.7912   4.8406   4.8826   4.9414
     4.9882   5.0469   5.1009   5.1302   5.1885   5.2303   5.2459   5.2997
     5.3814   5.4106   5.4577   5.4976   5.5973   5.6143   5.7041   5.7419
     5.7866   5.8158   5.8249   5.8944   5.9685   6.0156   6.0507   6.1603
     6.2042   6.2416   6.3488   6.4264   6.4805   6.5225   6.5936   6.6445
     8.4696   8.5511   8.6959   8.8122   8.8610   8.9803  10.3788  10.4258
    10.4730  10.5739  10.5944  10.6658  10.7194  10.7506  10.7919  10.8384
    10.8534  10.8773  11.1477  11.2083  11.2181  11.4250  11.4428  11.5050
    11.7566  11.8052  11.8347  11.9145  11.9568  11.9930  12.8016

          k = 0.2500 0.4330 0.0000 ( 49764 PWs)   bands (ev):

   -47.3932 -47.3923 -47.3704 -47.3703 -47.2679 -47.2678 -47.2166 -47.2155
   -47.2089 -47.2078 -25.0353 -25.0312 -24.9715 -24.9585 -24.8924 -24.8738
   -24.8535 -24.8518 -24.8367 -24.8345 -24.8288 -24.8138 -24.8072 -24.8040
   -24.7642 -24.7593 -24.7065 -24.7060 -24.5456 -24.5454 -24.5133 -24.5119
   -24.4766 -24.4749 -24.4645 -24.4635 -24.4337 -24.4325 -24.4178 -24.4173
    -9.7744  -9.7327  -9.4321  -9.3914  -9.2569  -9.2329  -9.0730  -9.0702
    -9.0642  -9.0440  -8.9265  -8.9162  -8.8461  -8.7844  -8.7559  -8.7448
    -8.6576  -8.6129  -8.5582  -8.5289  -8.4561  -8.4434  -8.4193  -8.3678
     2.6661   2.7644   2.7792   2.8549   2.8614   2.9813   2.9967   3.0182
     3.0335   3.0701   3.1582   3.2438   3.2632   3.3650   3.3883   3.4490
     3.4657   3.5501   3.5927   3.6221   3.7100   3.7346   3.8849   3.8997
     3.9241   4.0008   4.0577   4.0657   4.1975   4.2362   4.2768   4.3092
     4.3515   4.3830   4.4219   4.5283   4.6282   4.6482   4.7521   4.7740
     4.8829   4.9475   5.0568   5.0656   5.1006   5.1196   5.1892   5.1970
     5.2533   5.3278   5.3280   5.3625   5.4158   5.4598   5.4651   5.6292
     5.6836   5.7412   5.8712   5.8926   5.9242   6.0046   6.0251   6.0685
     6.1153   6.1820   6.1827   6.2252   6.2872   6.4354   6.5430   6.5584
     8.7506   8.7659   8.8774   8.8998   8.9782   9.0194  10.4320  10.4721
    10.5309  10.6376  10.6711  10.6908  10.7256  10.7620  10.8149  10.8735
    10.8793  10.9227  11.4250  11.4503  11.4630  11.4955  11.5008  11.5542
    11.5852  11.6179  11.7094  11.7491  11.7942  11.8602  12.6715

          k = 0.2500 0.4330-0.2047 ( 49760 PWs)   bands (ev):

   -47.3932 -47.3923 -47.3704 -47.3703 -47.2679 -47.2678 -47.2166 -47.2155
   -47.2089 -47.2078 -25.0352 -25.0312 -24.9716 -24.9585 -24.8923 -24.8739
   -24.8534 -24.8518 -24.8366 -24.8347 -24.8287 -24.8139 -24.8071 -24.8040
   -24.7641 -24.7593 -24.7065 -24.7060 -24.5456 -24.5454 -24.5133 -24.5119
   -24.4766 -24.4749 -24.4646 -24.4635 -24.4335 -24.4327 -24.4177 -24.4174
    -9.7585  -9.7515  -9.4190  -9.4007  -9.2487  -9.2417  -9.0736  -9.0659
    -9.0603  -9.0512  -8.9255  -8.9086  -8.8607  -8.8067  -8.7371  -8.7350
    -8.6358  -8.6335  -8.5612  -8.5185  -8.4819  -8.4381  -8.3995  -8.3767
     2.7030   2.7117   2.7923   2.8184   2.8898   2.9447   2.9820   3.0172
     3.0525   3.0540   3.2677   3.2689   3.3341   3.3658   3.3669   3.4318
     3.4546   3.4974   3.5719   3.6425   3.6624   3.6797   3.8121   3.8570
     3.9943   4.0247   4.0882   4.0913   4.2500   4.2637   4.3089   4.3108
     4.3431   4.3709   4.4878   4.5329   4.6144   4.6207   4.6215   4.7327
     4.8822   4.9040   4.9974   5.0100   5.1596   5.1665   5.2167   5.2489
     5.2914   5.3297   5.3707   5.3878   5.4508   5.4726   5.5076   5.5451
     5.7160   5.7797   5.8135   5.8961   5.9275   5.9593   6.0074   6.0269
     6.0779   6.1428   6.2239   6.2267   6.2992   6.4398   6.5322   6.6045
     8.7425   8.7637   8.8809   8.9255   8.9703   9.0076  10.4179  10.4867
    10.5492  10.6229  10.6476  10.7095  10.7179  10.7741  10.8226  10.8653
    10.8933  10.9085  11.4345  11.4548  11.4645  11.4751  11.5172  11.5267
    11.6055  11.6130  11.7098  11.7360  11.8155  11.8521  12.7110

          k = 0.2500-0.4330 0.0000 ( 49764 PWs)   bands (ev):

   -47.3913 -47.3900 -47.3756 -47.3660 -47.2781 -47.2547 -47.2284 -47.2273
   -47.1964 -47.1953 -25.0953 -25.0457 -24.9991 -24.9386 -24.9320 -24.8943
   -24.8804 -24.8409 -24.8185 -24.8098 -24.8053 -24.7985 -24.7887 -24.7511
   -24.7405 -24.7222 -24.7095 -24.7034 -24.5824 -24.5743 -24.5711 -24.5132
   -24.4928 -24.4761 -24.4672 -24.4531 -24.4464 -24.4423 -24.3720 -24.3713
    -9.8274  -9.6895  -9.5137  -9.3529  -9.2808  -9.2016  -9.1403  -9.0962
    -9.0173  -8.9943  -8.9188  -8.9005  -8.8382  -8.7608  -8.7584  -8.7206
    -8.6805  -8.6160  -8.5883  -8.5376  -8.4889  -8.4582  -8.4270  -8.2744
     2.6467   2.6840   2.7430   2.8540   2.9141   2.9812   3.0064   3.0929
     3.1216   3.1985   3.2235   3.2525   3.2645   3.3715   3.4228   3.4646
     3.5081   3.5592   3.6376   3.6709   3.6814   3.7601   3.7983   3.8873
     3.9270   3.9699   4.0596   4.1026   4.1225   4.1786   4.2337   4.2765
     4.3243   4.3881   4.4133   4.4423   4.5460   4.6926   4.7428   4.8326
     4.8454   4.9554   4.9917   5.0306   5.0845   5.1205   5.1482   5.1957
     5.2876   5.3041   5.3214   5.3775   5.3853   5.4483   5.5095   5.5879
     5.6725   5.6972   5.8312   5.8843   5.9244   5.9517   6.0375   6.1310
     6.1539   6.1902   6.2147   6.2565   6.3217   6.3417   6.5053   6.5647
     8.6635   8.8147   8.9272   8.9750   9.1111   9.1813  10.4214  10.4470
    10.5368  10.5543  10.5929  10.6488  10.7083  10.7776  10.8082  10.8171
    10.8338  10.8740  11.0943  11.1840  11.2156  11.4771  11.5047  11.5385
    11.7505  11.8156  11.8981  11.9165  11.9465  11.9804  12.7322

          k = 0.2500-0.4330-0.2047 ( 49760 PWs)   bands (ev):

   -47.3913 -47.3900 -47.3756 -47.3660 -47.2781 -47.2547 -47.2284 -47.2273
   -47.1964 -47.1953 -25.0953 -25.0456 -24.9991 -24.9387 -24.9319 -24.8944
   -24.8804 -24.8410 -24.8186 -24.8098 -24.8052 -24.7984 -24.7886 -24.7511
   -24.7404 -24.7222 -24.7096 -24.7034 -24.5824 -24.5743 -24.5711 -24.5132
   -24.4927 -24.4762 -24.4672 -24.4532 -24.4464 -24.4423 -24.3720 -24.3713
    -9.8175  -9.7145  -9.4861  -9.3663  -9.2637  -9.2193  -9.1399  -9.0963
    -9.0141  -8.9940  -8.9160  -8.9007  -8.8628  -8.7598  -8.7401  -8.7154
    -8.6755  -8.6228  -8.5939  -8.5279  -8.4832  -8.4789  -8.4183  -8.2752
     2.6253   2.6976   2.8058   2.8351   2.8719   2.9777   3.0199   3.0643
     3.1128   3.1618   3.2517   3.2743   3.3077   3.3771   3.4205   3.4774
     3.5074   3.5508   3.5870   3.6164   3.6941   3.7905   3.8302   3.8837
     3.9027   4.0058   4.0267   4.1045   4.1761   4.2192   4.2415   4.2516
     4.3420   4.3614   4.4855   4.5132   4.5387   4.6070   4.6384   4.7196
     4.7641   4.9082   5.0101   5.0715   5.1312   5.1700   5.2204   5.2348
     5.2497   5.3017   5.3403   5.4147   5.4178   5.4928   5.5240   5.5472
     5.6691   5.6945   5.8373   5.8683   5.9055   5.9496   6.0276   6.0565
     6.1152   6.1759   6.2366   6.3048   6.3079   6.4396   6.4660   6.5379
     8.6580   8.8348   8.9167   8.9788   9.1086   9.1787  10.3866  10.4884
    10.5082  10.5553  10.6158  10.6779  10.7237  10.7529  10.7575  10.8245
    10.8497  10.8901  11.0988  11.1500  11.2371  11.4744  11.5074  11.5379
    11.7470  11.8203  11.8937  11.9207  11.9485  11.9773  12.7168

          k = 0.2500-0.1443 0.0000 ( 49757 PWs)   bands (ev):

   -47.3941 -47.3925 -47.3776 -47.3642 -47.2814 -47.2483 -47.2315 -47.2304
   -47.1897 -47.1886 -25.1525 -25.1132 -25.0628 -24.9518 -24.9272 -24.9084
   -24.8850 -24.8446 -24.8427 -24.8246 -24.8133 -24.7899 -24.7896 -24.7207
   -24.7157 -24.7051 -24.7036 -24.6990 -24.5960 -24.5453 -24.5443 -24.4933
   -24.4917 -24.4544 -24.4527 -24.4505 -24.4430 -24.4283 -24.3389 -24.3380
   -10.0144  -9.8735  -9.6661  -9.2976  -9.2014  -9.1507  -9.1402  -9.1040
    -8.9579  -8.9186  -8.8902  -8.8789  -8.8621  -8.7880  -8.7005  -8.6744
    -8.6235  -8.5658  -8.5650  -8.5345  -8.4654  -8.4611  -8.4407  -8.2270
     2.3314   2.4531   2.4998   2.5234   2.6026   2.6589   2.7634   2.9665
     2.9690   3.0649   3.1768   3.2196   3.2842   3.2946   3.3076   3.4107
     3.4585   3.5110   3.5125   3.6802   3.7343   3.7417   3.7755   3.8898
     3.9795   4.0127   4.0856   4.1565   4.1749   4.2672   4.2774   4.3878
     4.4396   4.5212   4.5563   4.5787   4.7519   4.8177   4.8659   4.9263
     4.9766   5.0023   5.0113   5.1931   5.1996   5.2096   5.2354   5.2918
     5.3054   5.3924   5.4574   5.5132   5.6009   5.6435   5.7047   5.7483
     5.7833   5.8401   5.8487   5.8923   5.9841   6.0031   6.0906   6.1216
     6.1587   6.2151   6.2864   6.3813   6.3960   6.5330   6.6353   6.6703
     8.4979   8.7218   8.8268   8.8365   8.9414   8.9987  10.3195  10.4194
    10.4787  10.5081  10.5276  10.5645  10.7178  10.7330  10.7839  10.7984
    10.8227  10.8486  10.9719  11.0374  11.0550  11.4228  11.4830  11.5259
    11.7840  11.8527  11.9513  12.0825  12.0880  12.1089  12.7449

          k = 0.2500-0.1443-0.2047 ( 49720 PWs)   bands (ev):

   -47.3941 -47.3925 -47.3776 -47.3642 -47.2814 -47.2483 -47.2315 -47.2304
   -47.1897 -47.1886 -25.1525 -25.1131 -25.0628 -24.9518 -24.9271 -24.9084
   -24.8850 -24.8448 -24.8428 -24.8245 -24.8134 -24.7897 -24.7895 -24.7208
   -24.7156 -24.7051 -24.7037 -24.6990 -24.5960 -24.5454 -24.5443 -24.4933
   -24.4917 -24.4545 -24.4527 -24.4505 -24.4430 -24.4283 -24.3389 -24.3380
    -9.9894  -9.9226  -9.6282  -9.3044  -9.2067  -9.1687  -9.1179  -9.1089
    -8.9575  -8.9336  -8.8977  -8.8836  -8.8692  -8.7428  -8.7053  -8.6826
    -8.6079  -8.5777  -8.5489  -8.5401  -8.4845  -8.4644  -8.4316  -8.2271
     2.3464   2.4731   2.5015   2.5331   2.5997   2.6543   2.7116   2.9691
     2.9693   3.0243   3.1192   3.2161   3.2715   3.2725   3.3237   3.4842
     3.5124   3.5157   3.5580   3.6583   3.7405   3.7492   3.8497   3.9198
     3.9246   3.9781   4.1255   4.1392   4.1673   4.2693   4.2882   4.3384
     4.4294   4.4559   4.5703   4.6637   4.7629   4.7800   4.8071   4.8944
     4.9126   5.0726   5.0778   5.1018   5.1249   5.2019   5.2919   5.3097
     5.3809   5.3853   5.4298   5.4989   5.6277   5.6871   5.7124   5.7304
     5.7918   5.8254   5.8522   5.8929   5.9849   6.0376   6.0947   6.1039
     6.1460   6.2156   6.3100   6.4178   6.4501   6.5145   6.5271   6.6740
     8.5194   8.6822   8.8457   8.8546   8.9120   9.0114  10.3052  10.4046
    10.4610  10.5384  10.5611  10.6000  10.6735  10.7333  10.7624  10.7957
    10.8286  10.8669  10.9731  11.0042  11.0785  11.4228  11.4818  11.5271
    11.7796  11.8593  11.9503  12.0788  12.0927  12.1079  12.7562

          k =-0.5000-0.2887 0.0000 ( 49808 PWs)   bands (ev):

   -47.3932 -47.3923 -47.3704 -47.3703 -47.2679 -47.2679 -47.2167 -47.2155
   -47.2089 -47.2078 -25.0397 -25.0342 -24.9756 -24.9617 -24.8849 -24.8711
   -24.8536 -24.8521 -24.8399 -24.8292 -24.8150 -24.8079 -24.8051 -24.8042
   -24.7620 -24.7599 -24.7070 -24.7062 -24.5500 -24.5462 -24.5420 -24.5396
   -24.4774 -24.4747 -24.4533 -24.4526 -24.4332 -24.4285 -24.4108 -24.4087
    -9.7499  -9.7479  -9.4278  -9.4109  -9.2762  -9.2561  -9.0836  -9.0591
    -9.0199  -8.9907  -8.9360  -8.9341  -8.8455  -8.8195  -8.7640  -8.7374
    -8.6404  -8.6045  -8.5490  -8.5100  -8.4968  -8.4519  -8.4241  -8.3547
     2.6488   2.6513   2.7547   2.7852   2.8508   2.8596   3.0085   3.0356
     3.1333   3.1777   3.2226   3.3345   3.3512   3.3790   3.4053   3.4266
     3.4604   3.5112   3.5632   3.6142   3.7564   3.8127   3.8823   4.0008
     4.0180   4.0493   4.1543   4.1609   4.1744   4.2067   4.2621   4.3561
     4.3758   4.4215   4.4573   4.4868   4.4991   4.5529   4.5889   4.6447
     4.7429   4.7610   4.8165   4.9577   5.0307   5.0520   5.1445   5.1934
     5.2520   5.3003   5.3671   5.4516   5.4930   5.5339   5.5706   5.5954
     5.7528   5.7901   5.8316   5.9331   5.9540   6.0031   6.0283   6.1382
     6.1535   6.1908   6.2635   6.2876   6.3933   6.4350   6.5357   6.6143
     8.5960   8.6183   8.7596   8.8923   9.1166   9.1987  10.3810  10.3885
    10.5488  10.5900  10.6827  10.7251  10.7723  10.7942  10.8326  10.8654
    10.9031  10.9076  11.4030  11.4047  11.4643  11.4849  11.5265  11.5302
    11.6064  11.6122  11.6759  11.7820  11.8013  11.8736  12.5244

          k =-0.5000-0.2887-0.2047 ( 49752 PWs)   bands (ev):

   -47.3932 -47.3923 -47.3704 -47.3703 -47.2679 -47.2678 -47.2167 -47.2155
   -47.2089 -47.2078 -25.0397 -25.0341 -24.9756 -24.9617 -24.8849 -24.8712
   -24.8536 -24.8521 -24.8397 -24.8291 -24.8152 -24.8078 -24.8052 -24.8041
   -24.7619 -24.7598 -24.7071 -24.7061 -24.5501 -24.5462 -24.5420 -24.5396
   -24.4774 -24.4747 -24.4532 -24.4526 -24.4333 -24.4284 -24.4106 -24.4088
    -9.7504  -9.7469  -9.4361  -9.4048  -9.2845  -9.2427  -9.0864  -9.0554
    -9.0203  -8.9897  -8.9421  -8.9313  -8.8546  -8.8116  -8.7776  -8.7295
    -8.6265  -8.5808  -8.5797  -8.5292  -8.4868  -8.4495  -8.4128  -8.3607
     2.6178   2.7000   2.7428   2.7443   2.8371   2.8589   3.0220   3.0237
     3.1977   3.2526   3.2588   3.3122   3.3398   3.3891   3.4083   3.4462
     3.4568   3.4621   3.5307   3.6946   3.7119   3.7285   3.8494   3.8935
     4.0612   4.1020   4.1487   4.1831   4.1880   4.2332   4.2811   4.3346
     4.3629   4.3884   4.4132   4.4645   4.4713   4.5155   4.5486   4.6052
     4.8528   4.8720   4.9622   4.9816   5.0316   5.0976   5.1377   5.1871
     5.2092   5.3083   5.4107   5.4321   5.4468   5.4844   5.5328   5.6535
     5.7121   5.8026   5.8845   5.8964   5.9362   5.9686   5.9864   6.0599
     6.0603   6.1975   6.2764   6.3499   6.4677   6.4774   6.5329   6.6159
     8.5586   8.6914   8.7227   8.8924   9.1141   9.2002  10.3551  10.4546
    10.4618  10.6244  10.6898  10.7671  10.7698  10.7855  10.8188  10.8714
    10.8748  10.9205  11.3682  11.4090  11.4939  11.4966  11.5272  11.5388
    11.5846  11.6133  11.6702  11.7812  11.8103  11.8687  12.5381

          k =-0.5000 0.0000 0.0000 ( 49764 PWs)   bands (ev):

   -47.3913 -47.3900 -47.3756 -47.3660 -47.2781 -47.2547 -47.2284 -47.2273
   -47.1964 -47.1953 -25.0953 -25.0457 -24.9991 -24.9386 -24.9320 -24.8943
   -24.8804 -24.8409 -24.8185 -24.8098 -24.8053 -24.7985 -24.7887 -24.7511
   -24.7405 -24.7222 -24.7095 -24.7034 -24.5824 -24.5743 -24.5711 -24.5132
[...]
     4.5035   4.5119   4.5661   4.5915   4.6643   4.6697   4.7322   4.7647
     4.7749   4.8765   5.0813   5.1050   5.1274   5.1377   5.1913   5.2168
     5.2508   5.2931   5.3160   5.3256   5.3833   5.4870   5.6509   5.7282
     5.8220   5.9102   5.9171   5.9189   5.9940   6.0200   6.0673   6.1543
     6.2197   6.2483   6.3126   6.3740   6.3953   6.5487   6.5557   6.6785
    10.3813  10.4136  10.5539  10.5613  10.6146  10.6695  10.7343  10.8324
    10.8433  10.8524  10.8865  10.9155  11.2660  11.3066  11.4536  11.9822
    12.0107  12.1043  12.1749  12.2502  12.4306  12.5637  12.5744  12.6368
    12.7881  12.8027  12.8229  12.9313  12.9557  12.9952  13.0518

          k =-0.5000-0.5774 0.0000 ( 49764 PWs)   bands (ev):

   -47.2539 -47.2532 -47.2120 -47.2105 -46.4824 -46.4498 -46.3590 -46.3582
   -46.3246 -46.3238 -24.8297 -24.8108 -24.7548 -24.7341 -24.6891 -24.6857
   -24.6592 -24.6493 -24.6381 -24.6356 -24.6007 -24.5548 -24.5525 -24.5396
   -24.5371 -24.3783 -24.3483 -24.3462 -23.7610 -23.6580 -23.5945 -23.5913
   -23.4968 -23.4947 -23.4925 -23.4137 -23.3758 -23.3742 -23.2542 -23.2533
    -9.7905  -9.6599  -9.4687  -9.3095  -9.2427  -9.1535  -9.1067  -9.0543
    -8.9736  -8.9545  -8.8822  -8.8682  -8.8140  -8.7458  -8.7269  -8.6920
    -8.6600  -8.5956  -8.5646  -8.5160  -8.4574  -8.4392  -8.3968  -8.2892
     2.8026   2.8933   3.0009   3.0520   3.1633   3.1696   3.2370   3.2667
     3.2732   3.3066   3.3795   3.4177   3.4904   3.5322   3.6070   3.6346
     3.6569   3.7417   3.7799   3.8291   3.8859   3.9185   3.9461   4.0110
     4.0517   4.0926   4.1802   4.2136   4.2441   4.2881   4.3587   4.4007
     4.4836   4.4949   4.5160   4.6767   4.6991   4.7991   4.8644   4.9387
     5.0033   5.0534   5.0873   5.1160   5.1446   5.1820   5.2411   5.2708
     5.3795   5.3909   5.4295   5.4698   5.4770   5.5290   5.5679   5.6531
     5.7227   5.7468   5.8891   5.9479   5.9804   6.0223   6.0955   6.1876
     6.2152   6.2287   6.2657   6.3262   6.3678   6.3899   6.5335   6.5798
    10.3030  10.3425  10.5359  10.5559  10.6230  10.6865  10.7189  10.7505
    10.8008  10.8805  10.9298  10.9485  11.4893  11.6222  11.6664  12.0062
    12.0234  12.0862  12.2001  12.2686  12.3656  12.4532  12.4650  12.5015
    12.7368  12.7953  12.8346  12.9247  12.9421  12.9660  13.0351

          k =-0.5000-0.5774-0.2047 ( 49760 PWs)   bands (ev):

   -47.2539 -47.2532 -47.2120 -47.2105 -46.4824 -46.4498 -46.3590 -46.3582
   -46.3246 -46.3238 -24.8297 -24.8107 -24.7547 -24.7341 -24.6890 -24.6857
   -24.6592 -24.6493 -24.6379 -24.6358 -24.6007 -24.5546 -24.5526 -24.5396
   -24.5371 -24.3783 -24.3483 -24.3462 -23.7610 -23.6580 -23.5945 -23.5913
   -23.4968 -23.4947 -23.4926 -23.4137 -23.3758 -23.3742 -23.2542 -23.2533
    -9.7804  -9.6836  -9.4438  -9.3209  -9.2273  -9.1719  -9.1041  -9.0569
    -8.9680  -8.9544  -8.8846  -8.8641  -8.8361  -8.7362  -8.7193  -8.6908
    -8.6549  -8.5970  -8.5704  -8.5063  -8.4618  -8.4491  -8.3897  -8.2904
     2.8243   2.9053   2.9669   3.0393   3.1412   3.1557   3.2011   3.2546
     3.3188   3.3530   3.3974   3.4442   3.5116   3.5419   3.5556   3.6546
     3.6729   3.7009   3.7561   3.8067   3.8278   3.9204   3.9869   4.0176
     4.0366   4.1222   4.1992   4.2338   4.2827   4.3222   4.3575   4.4430
     4.4599   4.5083   4.6002   4.6374   4.6617   4.7196   4.7533   4.8444
     4.9156   5.0122   5.1064   5.1586   5.2050   5.2600   5.3059   5.3086
     5.3229   5.4258   5.4645   5.4889   5.5095   5.5626   5.5709   5.6318
     5.7265   5.7498   5.8946   5.9146   5.9813   6.0006   6.0558   6.1190
     6.1627   6.2634   6.2812   6.3435   6.3767   6.4883   6.4979   6.5488
    10.3073  10.3566  10.5023  10.5557  10.6368  10.6406  10.7572  10.7830
    10.8166  10.8686  10.8897  10.9640  11.5184  11.5762  11.6832  12.0008
    12.0318  12.0809  12.2015  12.2723  12.3627  12.4502  12.4673  12.5040
    12.7326  12.7996  12.8415  12.8840  12.9579  12.9924  13.0365

          k =-0.2500-0.1443 0.0000 ( 49757 PWs)   bands (ev):

   -47.2522 -47.2514 -47.2119 -47.2104 -46.4824 -46.4498 -46.3583 -46.3575
   -46.3248 -46.3240 -24.8674 -24.8569 -24.7538 -24.7202 -24.7019 -24.6961
   -24.6600 -24.6492 -24.6422 -24.6387 -24.6001 -24.5585 -24.5551 -24.5283
   -24.5252 -24.3784 -24.3486 -24.3465 -23.7611 -23.6580 -23.5592 -23.5563
   -23.4955 -23.4877 -23.4853 -23.4142 -23.3733 -23.3717 -23.2542 -23.2534
    -9.9619  -9.8419  -9.5742  -9.2811  -9.1715  -9.1075  -9.0635  -9.0421
    -8.9369  -8.9280  -8.9031  -8.8476  -8.8115  -8.7422  -8.7167  -8.6492
    -8.5961  -8.5535  -8.5225  -8.4725  -8.4299  -8.4240  -8.4035  -8.3101
     2.5173   2.6750   2.7342   2.8047   2.9394   2.9977   3.0314   3.1700
     3.2053   3.2655   3.2842   3.3199   3.3645   3.4047   3.4367   3.4706
     3.5268   3.5772   3.6188   3.7863   3.8027   3.8667   3.9309   4.0955
     4.1882   4.1967   4.2354   4.2790   4.3035   4.3348   4.4318   4.4733
     4.5503   4.5916   4.7228   4.8328   4.9027   4.9657   5.0193   5.0400
     5.0765   5.1702   5.2190   5.2319   5.2625   5.3345   5.3709   5.4240
     5.4374   5.4797   5.4897   5.5307   5.6038   5.7052   5.7540   5.7957
     5.8137   5.8401   5.8729   5.9089   6.0263   6.0785   6.0954   6.2181
     6.2230   6.3119   6.3390   6.4546   6.5110   6.5847   6.6299   6.6460
    10.0905  10.2305  10.3280  10.4201  10.4759  10.5588  10.6057  10.6341
    10.7551  10.7992  10.8551  10.9951  11.5906  11.6241  11.6996  11.9444
    11.9890  12.0190  12.2499  12.2872  12.3205  12.4545  12.4947  12.5079
    12.7037  12.8518  12.8762  12.9486  12.9722  13.0677  13.1160

          k =-0.2500-0.1443-0.2047 ( 49720 PWs)   bands (ev):

   -47.2522 -47.2514 -47.2119 -47.2104 -46.4824 -46.4498 -46.3583 -46.3575
   -46.3248 -46.3240 -24.8675 -24.8568 -24.7538 -24.7203 -24.7018 -24.6962
   -24.6600 -24.6492 -24.6420 -24.6390 -24.6001 -24.5582 -24.5553 -24.5281
   -24.5255 -24.3784 -24.3487 -24.3464 -23.7611 -23.6580 -23.5592 -23.5563
   -23.4955 -23.4877 -23.4853 -23.4142 -23.3733 -23.3717 -23.2542 -23.2534
    -9.9321  -9.8912  -9.5341  -9.2983  -9.1790  -9.1119  -9.0713  -9.0259
    -8.9438  -8.9130  -8.8955  -8.8824  -8.8171  -8.7408  -8.6951  -8.6411
    -8.5812  -8.5452  -8.5189  -8.5099  -8.4533  -8.4068  -8.3889  -8.3141
     2.5803   2.6385   2.7203   2.7507   2.9691   3.0257   3.0405   3.1224
     3.1923   3.2105   3.2711   3.3249   3.3748   3.3964   3.4880   3.5390
     3.5615   3.5836   3.6244   3.6749   3.8787   3.9451   3.9805   3.9950
     4.0949   4.1784   4.2293   4.2654   4.2939   4.3845   4.4511   4.4694
     4.5289   4.6913   4.7391   4.8002   4.9070   4.9608   4.9806   5.0211
     5.0815   5.1579   5.1868   5.2331   5.2699   5.3060   5.3420   5.3823
     5.4743   5.4896   5.5154   5.5668   5.6529   5.6851   5.7523   5.7882
     5.8205   5.8600   5.8700   5.9433   5.9904   6.0445   6.1426   6.2018
     6.2458   6.2760   6.3783   6.4553   6.5073   6.5485   6.6170   6.6639
    10.1210  10.1851  10.3729  10.4033  10.4265  10.5724  10.5977  10.6873
    10.7216  10.7994  10.8772  10.9844  11.5776  11.6462  11.6901  11.9496
    11.9732  12.0298  12.2347  12.3079  12.3130  12.4609  12.4883  12.5158
    12.7048  12.8323  12.8860  12.9456  12.9723  13.0642  13.1239

          k =-0.2500 0.1443 0.0000 ( 49757 PWs)   bands (ev):

   -47.2531 -47.2523 -47.2123 -47.2102 -46.4879 -46.4419 -46.3641 -46.3633
   -46.3168 -46.3160 -24.8662 -24.8457 -24.7614 -24.7216 -24.6994 -24.6909
   -24.6620 -24.6508 -24.6444 -24.6436 -24.6387 -24.5722 -24.5624 -24.5491
   -24.5447 -24.3368 -24.3112 -24.3104 -23.7832 -23.6390 -23.5959 -23.5929
   -23.5075 -23.4799 -23.4775 -23.3916 -23.3899 -23.3899 -23.2224 -23.2217
    -9.9781  -9.8390  -9.6215  -9.2550  -9.1772  -9.1141  -9.1038  -9.0630
    -8.9160  -8.8732  -8.8601  -8.8489  -8.8196  -8.7501  -8.6790  -8.6422
    -8.6070  -8.5583  -8.5275  -8.5112  -8.4552  -8.4286  -8.4065  -8.2544
     2.5549   2.6310   2.8018   2.8033   2.8482   3.0079   3.0775   3.1004
     3.1924   3.2611   3.2844   3.3628   3.4292   3.4386   3.4673   3.5423
     3.5839   3.6107   3.6176   3.8021   3.8377   3.9179   3.9718   4.0430
     4.1232   4.1264   4.1564   4.2825   4.3488   4.3791   4.4070   4.5469
     4.5893   4.6138   4.6568   4.7095   4.8983   4.9029   4.9564   4.9958
     5.0918   5.1001   5.1757   5.2468   5.2857   5.3070   5.3349   5.3685
     5.3768   5.4740   5.5067   5.6034   5.6423   5.6748   5.7433   5.7964
     5.8232   5.8905   5.9228   5.9241   5.9910   6.0462   6.1295   6.1621
     6.2164   6.2763   6.3745   6.4164   6.4826   6.6143   6.6531   6.6783
    10.1702  10.3133  10.4016  10.4332  10.5158  10.5736  10.6046  10.6325
    10.7066  10.8069  10.8578  10.9107  11.3219  11.4289  11.4627  11.9387
    12.0013  12.0615  12.2146  12.2744  12.4048  12.5659  12.6052  12.6566
    12.8171  12.8710  12.9072  13.0201  13.0418  13.0633  13.0925

          k =-0.2500 0.1443-0.2047 ( 49720 PWs)   bands (ev):

   -47.2531 -47.2523 -47.2123 -47.2102 -46.4879 -46.4419 -46.3641 -46.3633
   -46.3168 -46.3160 -24.8663 -24.8455 -24.7614 -24.7216 -24.6993 -24.6910
   -24.6621 -24.6507 -24.6444 -24.6438 -24.6387 -24.5724 -24.5622 -24.5488
   -24.5450 -24.3368 -24.3112 -24.3104 -23.7832 -23.6390 -23.5959 -23.5929
   -23.5075 -23.4799 -23.4775 -23.3916 -23.3899 -23.3899 -23.2224 -23.2217
    -9.9528  -9.8878  -9.5833  -9.2626  -9.1851  -9.1245  -9.0906  -9.0650
    -8.9153  -8.8982  -8.8675  -8.8394  -8.8252  -8.7091  -8.6861  -8.6499
    -8.5975  -8.5511  -8.5275  -8.5117  -8.4595  -8.4485  -8.3967  -8.2544
     2.6142   2.6314   2.7201   2.7996   2.8984   2.9549   3.0781   3.1131
     3.1562   3.2419   3.2632   3.3578   3.4408   3.4424   3.4966   3.5639
     3.6032   3.6168   3.6449   3.7591   3.8876   3.9732   3.9869   4.0044
     4.0984   4.1399   4.2279   4.2753   4.3217   4.3449   4.4329   4.4995
     4.5252   4.6032   4.6506   4.7963   4.8574   4.9147   4.9215   5.0005
     5.0468   5.1342   5.1710   5.1778   5.2623   5.2730   5.3725   5.4184
     5.4419   5.4624   5.5359   5.5436   5.6778   5.7102   5.7535   5.7688
     5.8073   5.8898   5.9176   5.9481   6.0300   6.0591   6.1422   6.1554
     6.1732   6.2360   6.4020   6.4981   6.5065   6.5479   6.5994   6.6888
    10.2225  10.3006  10.3327  10.4281  10.4901  10.5608  10.6191  10.7047
    10.7390  10.7860  10.8348  10.9117  11.3352  11.3946  11.4818  11.9381
    11.9976  12.0653  12.1995  12.2932  12.4027  12.5597  12.6162  12.6566
    12.8082  12.8780  12.8984  12.9945  13.0494  13.0692  13.1146

          k =-0.2500-0.7217 0.0000 ( 49764 PWs)   bands (ev):

   -47.2539 -47.2532 -47.2120 -47.2105 -46.4824 -46.4498 -46.3590 -46.3582
   -46.3246 -46.3238 -24.8296 -24.8107 -24.7548 -24.7341 -24.6891 -24.6857
   -24.6592 -24.6493 -24.6381 -24.6356 -24.6007 -24.5548 -24.5525 -24.5396
   -24.5371 -24.3783 -24.3483 -24.3462 -23.7610 -23.6580 -23.5944 -23.5913
   -23.4968 -23.4947 -23.4925 -23.4137 -23.3758 -23.3742 -23.2541 -23.2533
    -9.7905  -9.6599  -9.4687  -9.3095  -9.2427  -9.1535  -9.1067  -9.0543
    -8.9736  -8.9545  -8.8822  -8.8683  -8.8140  -8.7458  -8.7269  -8.6920
    -8.6600  -8.5956  -8.5646  -8.5160  -8.4574  -8.4392  -8.3968  -8.2892
     2.8026   2.8933   3.0009   3.0520   3.1633   3.1696   3.2370   3.2667
     3.2732   3.3066   3.3795   3.4177   3.4904   3.5322   3.6070   3.6346
     3.6569   3.7417   3.7799   3.8290   3.8859   3.9185   3.9461   4.0110
     4.0517   4.0926   4.1802   4.2136   4.2441   4.2881   4.3587   4.4007
     4.4836   4.4949   4.5160   4.6767   4.6991   4.7991   4.8644   4.9387
     5.0033   5.0534   5.0873   5.1160   5.1446   5.1820   5.2411   5.2708
     5.3795   5.3910   5.4295   5.4698   5.4770   5.5291   5.5679   5.6531
     5.7227   5.7468   5.8891   5.9479   5.9804   6.0223   6.0955   6.1876
     6.2152   6.2287   6.2657   6.3262   6.3678   6.3899   6.5335   6.5798
    10.3030  10.3425  10.5359  10.5559  10.6230  10.6865  10.7189  10.7505
    10.8008  10.8805  10.9298  10.9485  11.4893  11.6222  11.6664  12.0062
    12.0234  12.0862  12.2001  12.2686  12.3656  12.4532  12.4649  12.5015
    12.7368  12.7952  12.8346  12.9248  12.9421  12.9660  13.0351

          k =-0.2500-0.7217-0.2047 ( 49760 PWs)   bands (ev):

   -47.2539 -47.2532 -47.2120 -47.2105 -46.4824 -46.4498 -46.3590 -46.3582
   -46.3246 -46.3238 -24.8297 -24.8106 -24.7547 -24.7342 -24.6890 -24.6857
   -24.6592 -24.6493 -24.6379 -24.6358 -24.6007 -24.5546 -24.5526 -24.5396
   -24.5371 -24.3783 -24.3483 -24.3462 -23.7610 -23.6580 -23.5944 -23.5913
   -23.4968 -23.4947 -23.4925 -23.4137 -23.3758 -23.3742 -23.2542 -23.2533
    -9.7804  -9.6836  -9.4438  -9.3209  -9.2273  -9.1719  -9.1041  -9.0570
    -8.9680  -8.9544  -8.8846  -8.8641  -8.8361  -8.7362  -8.7193  -8.6908
    -8.6549  -8.5970  -8.5704  -8.5063  -8.4617  -8.4491  -8.3897  -8.2904
     2.8243   2.9053   2.9669   3.0393   3.1412   3.1556   3.2011   3.2546
     3.3189   3.3530   3.3974   3.4442   3.5116   3.5419   3.5556   3.6546
     3.6728   3.7009   3.7561   3.8067   3.8278   3.9203   3.9869   4.0176
     4.0366   4.1222   4.1992   4.2338   4.2827   4.3222   4.3575   4.4430
     4.4599   4.5083   4.6002   4.6374   4.6616   4.7196   4.7533   4.8444
     4.9156   5.0122   5.1064   5.1585   5.2050   5.2600   5.3059   5.3086
     5.3229   5.4259   5.4645   5.4889   5.5095   5.5626   5.5709   5.6319
     5.7265   5.7498   5.8946   5.9146   5.9813   6.0006   6.0558   6.1190
     6.1626   6.2634   6.2812   6.3435   6.3767   6.4883   6.4979   6.5488
    10.3073  10.3566  10.5023  10.5557  10.6368  10.6406  10.7572  10.7830
    10.8166  10.8686  10.8897  10.9640  11.5184  11.5762  11.6832  12.0008
    12.0318  12.0809  12.2015  12.2723  12.3627  12.4501  12.4673  12.5040
    12.7326  12.7997  12.8415  12.8841  12.9579  12.9924  13.0365

          k =-0.2500-0.4330 0.0000 ( 49764 PWs)   bands (ev):

   -47.2530 -47.2523 -47.2113 -47.2110 -46.4673 -46.4673 -46.3470 -46.3462
   -46.3388 -46.3380 -24.8299 -24.8285 -24.7405 -24.7350 -24.6963 -24.6906
   -24.6548 -24.6540 -24.6357 -24.6355 -24.5555 -24.5552 -24.4852 -24.4836
   -24.4795 -24.4767 -24.4123 -24.4113 -23.7082 -23.7081 -23.5415 -23.5386
   -23.5183 -23.5156 -23.4611 -23.4604 -23.3335 -23.3321 -23.3108 -23.3097
    -9.7365  -9.6939  -9.3819  -9.3365  -9.2255  -9.1998  -9.0481  -9.0432
    -9.0224  -9.0014  -8.8861  -8.8760  -8.8219  -8.7678  -8.7379  -8.7305
    -8.6191  -8.5904  -8.5297  -8.5032  -8.4432  -8.4221  -8.3927  -8.3538
     2.7942   2.8681   3.0617   3.0745   3.1075   3.1590   3.1950   3.2612
     3.2643   3.3118   3.3431   3.3449   3.4373   3.5573   3.6440   3.6508
     3.6667   3.7194   3.7828   3.7846   3.8321   3.8384   3.9582   3.9959
     4.0775   4.1410   4.1475   4.1697   4.2892   4.3642   4.4045   4.4250
     4.4741   4.4752   4.5928   4.5988   4.7072   4.7717   4.8865   4.9801
     4.9883   5.0555   5.1398   5.1458   5.1969   5.2310   5.2723   5.2890
     5.3605   5.4003   5.4313   5.4646   5.5128   5.5379   5.5850   5.7254
     5.7455   5.7874   5.9169   5.9460   5.9965   6.0359   6.0885   6.1121
     6.1372   6.2251   6.2493   6.2592   6.3045   6.4894   6.5413   6.5791
    10.2592  10.2929  10.5297  10.5313  10.5691  10.5699  10.7257  10.7555
    10.7825  10.9035  10.9299  11.0404  11.9288  11.9560  12.0051  12.0143
    12.0198  12.0593  12.1378  12.1496  12.2134  12.2347  12.3434  12.3996
    12.6452  12.7030  12.7714  12.8804  12.9357  13.0286  13.0628

          k =-0.2500-0.4330-0.2047 ( 49760 PWs)   bands (ev):

   -47.2530 -47.2523 -47.2113 -47.2110 -46.4673 -46.4673 -46.3470 -46.3462
   -46.3388 -46.3380 -24.8299 -24.8285 -24.7405 -24.7350 -24.6963 -24.6907
   -24.6549 -24.6541 -24.6357 -24.6355 -24.5555 -24.5552 -24.4852 -24.4836
   -24.4794 -24.4768 -24.4123 -24.4114 -23.7082 -23.7081 -23.5415 -23.5386
   -23.5183 -23.5156 -23.4611 -23.4604 -23.3335 -23.3321 -23.3108 -23.3097
    -9.7207  -9.7125  -9.3691  -9.3456  -9.2174  -9.2081  -9.0494  -9.0403
    -9.0166  -9.0083  -8.8853  -8.8682  -8.8383  -8.7837  -8.7269  -8.7184
    -8.6069  -8.5970  -8.5387  -8.4969  -8.4521  -8.4249  -8.3732  -8.3653
     2.8169   2.8313   3.0368   3.0582   3.1379   3.1713   3.1956   3.2474
     3.2835   3.2878   3.3876   3.4056   3.5155   3.5535   3.5665   3.6313
     3.6669   3.6817   3.7571   3.7591   3.7820   3.8325   3.9052   4.0428
     4.0664   4.1257   4.2058   4.2303   4.3640   4.3684   4.3989   4.4400
     4.4539   4.4948   4.6410   4.6959   4.6969   4.7020   4.7542   4.8255
     4.9799   5.0381   5.0878   5.1372   5.2357   5.2548   5.3349   5.3701
     5.3867   5.4075   5.4497   5.4651   5.5492   5.5741   5.6037   5.6603
     5.7703   5.8247   5.8848   5.9378   5.9850   6.0294   6.0427   6.0583
     6.1419   6.2229   6.2522   6.2600   6.3163   6.4711   6.5419   6.6153
    10.2664  10.2877  10.5135  10.5168  10.5897  10.6065  10.6972  10.7341
    10.8292  10.8427  10.9850  11.0230  11.9463  11.9610  11.9929  11.9965
    12.0373  12.0540  12.1321  12.1440  12.2148  12.2328  12.3585  12.3905
    12.6680  12.6757  12.7791  12.8723  12.9528  13.0239  13.0750

     the Fermi energy is     9.4304 ev

!    total energy              =   -1944.10692392 Ry
     Harris-Foulkes estimate   =   -1944.10692320 Ry
     estimated scf accuracy    <       0.00000108 Ry

     The total energy is the sum of the following terms:

     one-electron contribution =    -997.01361707 Ry
     hartree contribution      =     628.90618530 Ry
     xc contribution           =    -319.83563881 Ry
     ewald contribution        =   -1257.61393438 Ry
     Hubbard energy            =       1.45008103 Ry
     smearing contrib. (-TS)   =      -0.00000000 Ry

     total magnetization       =     6.00 Bohr mag/cell
     absolute magnetization    =     6.60 Bohr mag/cell

     convergence has been achieved in  31 iterations

     Writing output data file system.save
 
     init_run     :    101.07s CPU    102.04s WALL (       1 calls)
     electrons    :   2068.06s CPU   2079.93s WALL (       1 calls)

     Called by init_run:
     wfcinit      :     99.95s CPU    100.82s WALL (       1 calls)
     potinit      :      0.37s CPU      0.38s WALL (       1 calls)

     Called by electrons:
     c_bands      :   1882.21s CPU   1892.43s WALL (      31 calls)
     sum_band     :    181.97s CPU    183.09s WALL (      31 calls)
     v_of_rho     :      0.99s CPU      1.06s WALL (      32 calls)
     mix_rho      :      2.42s CPU      2.77s WALL (      31 calls)

     Called by c_bands:
     init_us_2    :     18.22s CPU     18.30s WALL (    1024 calls)
     cegterg      :   1622.02s CPU   1629.38s WALL (     496 calls)

     Called by sum_band:

     Called by *egterg:
     h_psi        :   1057.72s CPU   1062.18s WALL (    3120 calls)
     g_psi        :      4.12s CPU      4.14s WALL (    2608 calls)
     cdiaghg      :    226.29s CPU    226.78s WALL (    3104 calls)

     Called by h_psi:
     h_psi:pot    :    986.31s CPU    990.43s WALL (    3120 calls)
     h_psi:calbec :    167.24s CPU    167.68s WALL (    3120 calls)
     vloc_psi     :    650.20s CPU    653.47s WALL (    3120 calls)
     add_vuspsi   :    168.85s CPU    169.26s WALL (    3120 calls)
     vhpsi        :     60.25s CPU     60.49s WALL (    3120 calls)

     General routines
     calbec       :    208.58s CPU    209.31s WALL (    6752 calls)
     fft          :      0.85s CPU      1.01s WALL (     222 calls)
     fftw         :    693.60s CPU    697.14s WALL (  474430 calls)
     davcio       :      0.00s CPU      0.17s WALL (      16 calls)
 
     Parallel routines
     fft_scatter  :    195.15s CPU    196.45s WALL (  474652 calls)

     Hubbard U routines
     new_ns       :     11.00s CPU     11.22s WALL (      31 calls)
     vhpsi        :     60.25s CPU     60.49s WALL (    3120 calls)
 
     PWSCF        : 36m40.89s CPU    37m 3.34s WALL

 
   This run was terminated on:   1:27:57   1Jun2017            

=------------------------------------------------------------------------------=
   JOB DONE.
=------------------------------------------------------------------------------=
