<UPF version="2.0.1">
  <PP_INFO>
    Generated using FHI98PP, converted with fhi2upf.x v.5.0.2
    Author: unknown
    Generation date: unknown
    Pseudopotential type: SL
    Element: Nb
    Functional: SLA-PW

    Suggested minimum cutoff for wavefunctions:   0. Ry
    Suggested minimum cutoff for charge density:   0. Ry
    The Pseudo was generated with a Scalar-Relativistic Calculation
    L component and cutoff radius for Local Potential:  3   0.0000

    Valence configuration: 
    nl pn  l   occ       Rcut    Rcut US       E pseu
    4s  4  0  2.00      0.000      0.000     0.000000
    4p  4  1  6.00      0.000      0.000     0.000000
    4d  4  2  0.00      0.000      0.000     0.000000
    5s  5  0  0.00      0.000      0.000     0.000000

    Generation configuration: not available.
    Comment:
    OPIUM generated Nb potential
  </PP_INFO>
  <!--                               -->
  <!-- END OF HUMAN READABLE SECTION -->
  <!--                               -->
  <PP_HEADER generated="Generated using FHI98PP, converted with fhi2upf.x v.5.0.2"
             author="unknown"
             date="unknown"
             comment="OPIUM generated Nb potential"
             element="Nb"
             pseudo_type="SL"
             relativistic="scalar"
             is_ultrasoft="F"
             is_paw="F"
             is_coulomb="F"
             has_so="F"
             has_wfc="F"
             has_gipaw="F"
             paw_as_gipaw="F"
             core_correction="F"
             functional="SLA-PW"
             z_valence="1.300000000000000E+001"
             total_psenergy="0.000000000000000E+000"
             wfc_cutoff="0.000000000000000E+000"
             rho_cutoff="0.000000000000000E+000"
             l_max="2"
             l_max_rho="0"
             l_local="3"
             mesh_size="1171"
             number_of_wfc="4"
             number_of_proj="3"/>
  <PP_MESH dx="1.299999999999981E-002" mesh="1171" xmin="-6.734625660839978E+000" rmax="1.169565235857545E+002"
zmesh="4.100000000000000E+001">
    <PP_R type="real" size="1171" columns="4">
 2.900049301676267E-005  2.937996062125608E-005  2.976439350902163E-005  3.015385665013234E-005 
 3.054841586478603E-005  3.094813783442904E-005  3.135309011302563E-005  3.176334113847472E-005 
 3.217896024417603E-005  3.260001767074764E-005  3.302658457789682E-005  3.345873305644612E-005 
 3.389653614051697E-005  3.434006781987262E-005  3.478940305242250E-005  3.524461777689038E-005 
 3.570578892564817E-005  3.617299443771762E-005  3.664631327194227E-005  3.712582542033165E-005 
 3.761161192158012E-005  3.810375487476261E-005  3.860233745320956E-005  3.910744391856340E-005 
 3.961915963501898E-005  4.013757108375031E-005  4.066276587752609E-005  4.119483277551649E-005 
 4.173386169829365E-005  4.227994374302843E-005  4.283317119888616E-005  4.339363756262358E-005 
 4.396143755439015E-005  4.453666713373587E-005  4.511942351582878E-005  4.570980518788444E-005 
 4.630791192581064E-005  4.691384481106959E-005  4.752770624776111E-005  4.814959997992904E-005 
 4.877963110909428E-005  4.941790611201720E-005  5.006453285869244E-005  5.071962063057924E-005 
 5.138328013907021E-005  5.205562354420186E-005  5.273676447360990E-005  5.342681804173259E-005 
 5.412590086926531E-005  5.483413110286983E-005  5.555162843514127E-005  5.627851412483649E-005 
 5.701491101736712E-005  5.776094356556069E-005  5.851673785069348E-005  5.928242160379852E-005 
 6.005812422725251E-005  6.084397681664505E-005  6.164011218293417E-005  6.244666487489161E-005 
 6.326377120184202E-005  6.409156925669943E-005  6.493019893930537E-005  6.577980198007220E-005 
 6.664052196393597E-005  6.751250435462251E-005  6.839589651923129E-005  6.929084775314066E-005 
 7.019750930523924E-005  7.111603440348725E-005  7.204657828081251E-005  7.298929820134506E-005 
 7.394435348699522E-005  7.491190554437938E-005  7.589211789209814E-005  7.688515618837124E-005 
 7.789118825903429E-005  7.891038412590168E-005  7.994291603550070E-005  8.098895848818157E-005 
 8.204868826760854E-005  8.312228447063651E-005  8.420992853757913E-005  8.531180428287234E-005 
 8.642809792613971E-005  8.755899812366387E-005  8.870469600026978E-005  8.986538518162552E-005 
 9.104126182696523E-005  9.223252466224074E-005  9.343937501370647E-005  9.466201684194431E-005 
 9.590065677633316E-005  9.715550414997006E-005  9.842677103504782E-005  9.971467227869571E-005 
 1.010194255392893E-004  1.023412513232350E-004  1.036803730222364E-004  1.050370169510479E-004 
 1.064114123857224E-004  1.078037916023595E-004  1.092143899163609E-004  1.106434457221990E-004 
 1.120912005337062E-004  1.135578990248915E-004  1.150437890712908E-004  1.165491217918586E-004 
 1.180741515914072E-004  1.196191362036028E-004  1.211843367345219E-004  1.227700177067796E-004 
 1.243764471042342E-004  1.260038964172774E-004  1.276526406887166E-004  1.293229585602579E-004 
 1.310151323195970E-004  1.327294479481267E-004  1.344661951692687E-004  1.362256674974367E-004 
 1.380081622876422E-004  1.398139807857470E-004  1.416434281793754E-004  1.434968136494912E-004 
 1.453744504226500E-004  1.472766558239356E-004  1.492037513305880E-004  1.511560626263347E-004 
 1.531339196564313E-004  1.551376566834233E-004  1.571676123436376E-004  1.592241297044119E-004 
 1.613075563220753E-004  1.634182443006846E-004  1.655565503515319E-004  1.677228358534293E-004 
 1.699174669137824E-004  1.721408144304640E-004  1.743932541544961E-004  1.766751667535532E-004 
 1.789869378762956E-004  1.813289582175454E-004  1.837016235843143E-004  1.861053349626967E-004 
 1.885404985856364E-004  1.910075260015818E-004  1.935068341440378E-004  1.960388454020291E-004 
 1.986039876914847E-004  2.012026945275570E-004  2.038354050978863E-004  2.065025643368251E-004 
 2.092046230006329E-004  2.119420377436551E-004  2.147152711954984E-004  2.175247920392171E-004 
 2.203710750905202E-004  2.232546013780182E-004  2.261758582245167E-004  2.291353393293754E-004 
 2.321335448519453E-004  2.351709814960952E-004  2.382481625958478E-004  2.413656082021326E-004 
 2.445238451706773E-004  2.477234072510461E-004  2.509648351768460E-004  2.542486767571114E-004 
 2.575754869688852E-004  2.609458280510113E-004  2.643602695991544E-004  2.678193886620626E-004 
 2.713237698390909E-004  2.748740053789989E-004  2.784706952800425E-004  2.821144473913757E-004 
 2.858058775157777E-004  2.895456095137255E-004  2.933342754088278E-004  2.971725154946380E-004 
 3.010609784428661E-004  3.050003214130054E-004  3.089912101633938E-004  3.130343191637287E-004 
 3.171303317090542E-004  3.212799400352394E-004  3.254838454359680E-004  3.297427583812583E-004 
 3.340573986375347E-004  3.384284953892696E-004  3.428567873622180E-004  3.473430229482630E-004 
 3.518879603318961E-004  3.564923676183528E-004  3.611570229634232E-004  3.658827147049632E-004 
 3.706702414961246E-004  3.755204124403298E-004  3.804340472280123E-004  3.854119762751462E-004 
 3.904550408635885E-004  3.955640932832574E-004  4.007399969761719E-004  4.059836266823754E-004 
 4.112958685877685E-004  4.166776204738771E-004  4.221297918695787E-004  4.276533042048159E-004 
 4.332490909663200E-004  4.389180978553724E-004  4.446612829476296E-004  4.504796168550419E-004 
 4.563740828898877E-004  4.623456772309564E-004  4.683954090919048E-004  4.745243008918158E-004 
 4.807333884279913E-004  4.870237210510032E-004  4.933963618420364E-004  4.998523877925518E-004 
 5.063928899863013E-004  5.130189737837223E-004  5.197317590087476E-004  5.265323801380577E-004 
 5.334219864928086E-004  5.404017424328729E-004  5.474728275536167E-004  5.546364368852558E-004 
 5.618937810948164E-004  5.692460866907437E-004  5.766945962301824E-004  5.842405685289730E-004 
 5.918852788743943E-004  5.996300192406893E-004  6.074760985074135E-004  6.154248426806372E-004 
 6.234775951170452E-004  6.316357167509644E-004  6.399005863243687E-004  6.482736006198870E-004 
 6.567561746968641E-004  6.653497421305085E-004  6.740557552541692E-004  6.828756854047860E-004 
 6.918110231715464E-004  7.008632786478001E-004  7.100339816862675E-004  7.193246821575893E-004 
 7.287369502122583E-004  7.382723765459774E-004  7.479325726684929E-004  7.577191711759409E-004 
 7.676338260267625E-004  7.776782128212254E-004  7.878540290846049E-004  7.981629945540681E-004 
 8.086068514693161E-004  8.191873648670249E-004  8.299063228791414E-004  8.407655370350822E-004 
 8.517668425678849E-004  8.629120987243690E-004  8.742031890793519E-004  8.856420218539777E-004 
 8.972305302382102E-004  9.089706727175483E-004  9.208644334040138E-004  9.329138223714711E-004 
 9.451208759953346E-004  9.574876572967200E-004  9.700162562911020E-004  9.827087903415295E-004 
 9.955674045164674E-004  1.008594271952315E-003  1.021791594220674E-003  1.035161601700419E-003 
 1.048706553954637E-003  1.062428740112496E-003  1.076330479256117E-003  1.090414120812503E-003 
 1.104682044950598E-003  1.119136662983539E-003  1.133780417776178E-003  1.148615784157928E-003 
 1.163645269341018E-003  1.178871413344214E-003  1.194296789422095E-003  1.209924004499929E-003 
 1.225755699614259E-003  1.241794550359242E-003  1.258043267338827E-003  1.274504596624856E-003 
 1.291181320221159E-003  1.308076256533716E-003  1.325192260846975E-003  1.342532225806404E-003 
 1.360099081907350E-003  1.377895797990306E-003  1.395925381742647E-003  1.414190880206941E-003 
 1.432695380295901E-003  1.451442009314084E-003  1.470433935486413E-003  1.489674368493615E-003 
 1.509166560014662E-003  1.528913804276313E-003  1.548919438609850E-003  1.569186844015090E-003 
 1.589719445731785E-003  1.610520713818494E-003  1.631594163739035E-003  1.652943356956600E-003 
 1.674571901535654E-003  1.696483452751711E-003  1.718681713709078E-003  1.741170435966691E-003 
 1.763953420172136E-003  1.787034516703970E-003  1.810417626322442E-003  1.834106700828733E-003 
 1.858105743732814E-003  1.882418810930057E-003  1.907050011386686E-003  1.932003507834204E-003 
 1.957283517472900E-003  1.982894312684573E-003  2.008840221754571E-003  2.035125629603279E-003 
 2.061754978527188E-003  2.088732768949642E-003  2.116063560181435E-003  2.143751971191334E-003 
 2.171802681386702E-003  2.200220431404324E-003  2.229010023911591E-003  2.258176324418160E-003 
 2.287724262098233E-003  2.317658830623607E-003  2.347985089007607E-003  2.378708162460081E-003 
 2.409833243253566E-003  2.441365591600798E-003  2.473310536543696E-003  2.505673476853988E-003 
 2.538459881945614E-003  2.571675292799069E-003  2.605325322897846E-003  2.639415659177116E-003 
 2.673952062984851E-003  2.708940371055496E-003  2.744386496496389E-003  2.780296429787095E-003 
 2.816676239791810E-003  2.853532074785011E-003  2.890870163490534E-003  2.928696816134240E-003 
 2.967018425510451E-003  3.005841468062365E-003  3.045172504976575E-003  3.085018183291931E-003 
 3.125385237022905E-003  3.166280488297655E-003  3.207710848510981E-003  3.249683319492368E-003 
 3.292204994689313E-003  3.335283060366123E-003  3.378924796818432E-003  3.423137579603571E-003 
 3.467928880787062E-003  3.513306270205411E-003  3.559277416745435E-003  3.605850089640312E-003 
 3.653032159782611E-003  3.700831601054487E-003  3.749256491675275E-003  3.798315015566749E-003 
 3.848015463736211E-003  3.898366235677693E-003  3.949375840791493E-003  4.001052899822285E-003 
 4.053406146316039E-003  4.106444428096019E-003  4.160176708758086E-003  4.214612069185553E-003 
 4.269759709083895E-003  4.325628948535516E-003  4.382229229574854E-003  4.439570117784119E-003 
 4.497661303909896E-003  4.556512605500902E-003  4.616133968567179E-003  4.676535469260995E-003 
 4.737727315579717E-003  4.799719849091021E-003  4.862523546680621E-003  4.926149022322885E-003 
 4.990607028874633E-003  5.055908459892389E-003  5.122064351473416E-003  5.189085884120852E-003 
 5.256984384633237E-003  5.325771328018749E-003  5.395458339434550E-003  5.466057196151426E-003 
 5.537579829544196E-003  5.610038327108137E-003  5.683444934501792E-003  5.757812057616526E-003 
 5.833152264673147E-003  5.909478288345971E-003  5.986803027914650E-003  6.065139551444216E-003 
 6.144501097993596E-003  6.224901079853043E-003  6.306353084810852E-003  6.388870878449724E-003 
 6.472468406473186E-003  6.557159797062443E-003  6.642959363264083E-003  6.729881605408996E-003 
 6.817941213562991E-003  6.907153070009438E-003  6.997532251764410E-003  7.089094033124733E-003 
 7.181853888249383E-003  7.275827493774655E-003  7.371030731463549E-003  7.467479690889832E-003 
 7.565190672157194E-003  7.664180188654035E-003  7.764464969844250E-003  7.866061964094546E-003 
 7.968988341538762E-003  8.073261496979662E-003  8.178899052828694E-003  8.285918862084225E-003 
 8.394339011348744E-003  8.504177823885515E-003  8.615453862715287E-003  8.728185933753470E-003 
 8.842393088988385E-003  8.958094629701090E-003  9.075310109727347E-003  9.194059338762264E-003 
 9.314362385708180E-003  9.436239582066375E-003  9.559711525373094E-003  9.684799082680639E-003 
 9.811523394083916E-003  9.939905876293167E-003  1.006996822625345E-002  1.020173242481147E-002 
 1.033522074043039E-002  1.047045573295327E-002  1.060746025741572E-002  1.074625746790846E-002 
 1.088687082149039E-002  1.102932408215297E-002  1.117364132483629E-002  1.131984693949786E-002 
 1.146796563523453E-002  1.161802244445842E-002  1.177004272712744E-002  1.192405217503120E-002 
 1.208007681613293E-002  1.223814301896833E-002  1.239827749710190E-002  1.256050731364159E-002 
 1.272485988581250E-002  1.289136298959051E-002  1.306004476439645E-002  1.323093371785175E-002 
 1.340405873059628E-002  1.357944906116922E-002  1.375713435095390E-002  1.393714462918721E-002 
 1.411951031803460E-002  1.430426223773153E-002  1.449143161179218E-002  1.468105007228622E-002 
 1.487314966518480E-002  1.506776285577635E-002  1.526492253415324E-002  1.546466202077039E-002 
 1.566701507207645E-002  1.587201588621870E-002  1.607969910882266E-002  1.629009983884724E-002 
 1.650325363451660E-002  1.671919651932954E-002  1.693796498814756E-002  1.715959601336256E-002 
 1.738412705114532E-002  1.761159604777562E-002  1.784204144605531E-002  1.807550219180516E-002 
 1.831201774044686E-002  1.855162806367108E-002  1.879437365619273E-002  1.904029554259472E-002 
 1.928943528426113E-002  1.954183498640131E-002  1.979753730516565E-002  2.005658545485461E-002 
 2.031902321522206E-002  2.058489493887412E-002  2.085424555876490E-002  2.112712059579022E-002 
 2.140356616648085E-002  2.168362899079614E-002  2.196735640002002E-002  2.225479634475994E-002 
 2.254599740305068E-002  2.284100878856420E-002  2.313988035892680E-002  2.344266262414520E-002 
 2.374940675514290E-002  2.406016459240812E-002  2.437498865475495E-002  2.469393214819927E-002 
 2.501704897495058E-002  2.534439374252166E-002  2.567602177295733E-002  2.601198911218405E-002 
 2.635235253948177E-002  2.669716957707982E-002  2.704649849987826E-002  2.740039834529644E-002 
 2.775892892325058E-002  2.812215082626168E-002  2.849012543969585E-002  2.886291495213860E-002 
 2.924058236590478E-002  2.962319150768622E-002  3.001080703933852E-002  3.040349446880911E-002 
 3.080132016120816E-002  3.120435135002459E-002  3.161265614848854E-002  3.202630356108276E-002 
 3.244536349520451E-002  3.286990677298005E-002  3.330000514323379E-002  3.373573129361396E-002 
 3.417715886287709E-002  3.462436245333296E-002  3.507741764345277E-002  3.553640100064197E-002 
 3.600139009418036E-002  3.647246350833145E-002  3.694970085562345E-002  3.743318279030391E-002 
 3.792299102197053E-002  3.841920832938027E-002  3.892191857443908E-002  3.943120671637491E-002 
 3.994715882609588E-002  4.046986210073657E-002  4.099940487839447E-002  4.153587665305937E-002 
 4.207936808973804E-002  4.262997103977685E-002  4.318777855638487E-002  4.375288491035997E-002 
 4.432538560602103E-002  4.490537739734820E-002  4.549295830433467E-002  4.608822762955221E-002 
 4.669128597493358E-002  4.730223525877450E-002  4.792117873295805E-002  4.854822100040455E-002 
 4.918346803274954E-002  4.982702718825348E-002  5.047900722994537E-002  5.113951834400406E-002 
 5.180867215837987E-002  5.248658176166010E-002  5.317336172218120E-002  5.386912810739108E-002 
 5.457399850346491E-002  5.528809203517716E-002  5.601152938603438E-002  5.674443281867068E-002 
 5.748692619551059E-002  5.823913499970198E-002  5.900118635632309E-002  5.977320905386695E-002 
 6.055533356600694E-002  6.134769207364718E-002  6.215041848726126E-002  6.296364846952371E-002 
 6.378751945823706E-002  6.462217068955935E-002  6.546774322153517E-002  6.632437995793500E-002 
 6.719222567240615E-002  6.807142703293993E-002  6.896213262665894E-002  6.986449298492833E-002 
 7.077866060879642E-002  7.170478999476747E-002  7.264303766091197E-002  7.359356217331862E-002 
 7.455652417289237E-002  7.553208640250304E-002  7.652041373448944E-002  7.752167319852302E-002 
 7.853603400983615E-002  7.956366759782031E-002  8.060474763499773E-002  8.165945006637255E-002 
 8.272795313916599E-002  8.381043743294048E-002  8.490708589011808E-002  8.601808384689819E-002 
 8.714361906457978E-002  8.828388176129354E-002  8.943906464414914E-002  9.060936294180322E-002 
 9.179497443745366E-002  9.299609950226481E-002  9.421294112923155E-002  9.544570496748504E-002 
 9.669459935704806E-002  9.795983536404490E-002  9.924162681637218E-002  1.005401903398361E-001 
 1.018557453947628E-001  1.031885143130877E-001  1.045387223359302E-001  1.059065976516598E-001 
 1.072923714344604E-001  1.086962778833997E-001  1.101185542620089E-001  1.115594409383813E-001 
 1.130191814257944E-001  1.144980224238652E-001  1.159962138602421E-001  1.175140089328434E-001 
 1.190516641526491E-001  1.206094393870510E-001  1.221875979037715E-001  1.237864064153560E-001 
 1.254061351242484E-001  1.270470577684555E-001  1.287094516678097E-001  1.303935977708368E-001 
 1.320997807022364E-001  1.338282888109851E-001  1.355794142190671E-001  1.373534528708441E-001 
 1.391507045830709E-001  1.409714730955644E-001  1.428160661225367E-001  1.446847954045998E-001 
 1.465779767614504E-001  1.484959301452431E-001  1.504389796946651E-001  1.524074537897148E-001 
 1.544016851071995E-001  1.564220106769582E-001  1.584687719388208E-001  1.605423148003121E-001 
 1.626429896951109E-001  1.647711516422742E-001  1.669271603062364E-001  1.691113800575931E-001 
 1.713241800346809E-001  1.735659342059628E-001  1.758370214332291E-001  1.781378255356268E-001 
 1.804687353545253E-001  1.828301448192318E-001  1.852224530135664E-001  1.876460642433074E-001 
 1.901013881045213E-001  1.925888395527846E-001  1.951088389733123E-001  1.976618122520044E-001 
 2.002481908474214E-001  2.028684118637016E-001  2.055229181244333E-001  2.082121582474924E-001 
 2.109365867208604E-001  2.136966639794337E-001  2.164928564828383E-001  2.193256367942624E-001 
 2.221954836603210E-001  2.251028820919649E-001  2.280483234464490E-001  2.310323055103726E-001 
 2.340553325838071E-001  2.371179155655223E-001  2.402205720393315E-001  2.433638263615636E-001 
 2.465482097496803E-001  2.497742603720532E-001  2.530425234389160E-001  2.563535512945055E-001 
 2.597079035104102E-001  2.631061469801380E-001  2.665488560149235E-001  2.700366124407876E-001 
 2.735700056968675E-001  2.771496329350332E-001  2.807760991208079E-001  2.844500171356082E-001 
 2.881720078803231E-001  2.919427003802470E-001  2.957627318913875E-001  2.996327480081611E-001 
 3.035534027725030E-001  3.075253587843998E-001  3.115492873138714E-001  3.156258684144165E-001 
 3.197557910379437E-001  3.239397531512060E-001  3.281784618537588E-001  3.324726334974614E-001 
 3.368229938075420E-001  3.412302780052476E-001  3.456952309320970E-001  3.502186071757621E-001 
 3.548011711975940E-001  3.594436974618194E-001  3.641469705664266E-001  3.689117853757646E-001 
 3.737389471548775E-001  3.786292717055937E-001  3.835835855044025E-001  3.886027258421277E-001 
 3.936875409654322E-001  3.988388902201742E-001  4.040576441966386E-001  4.093446848766686E-001 
 4.147009057827226E-001  4.201272121288822E-001  4.256245209738350E-001  4.311937613758599E-001 
 4.368358745498402E-001  4.425518140263310E-001  4.483425458127085E-001  4.542090485564269E-001 
 4.601523137104128E-001  4.661733457006228E-001  4.722731620957947E-001  4.784527937794157E-001 
 4.847132851239495E-001  4.910556941673337E-001  4.974810927917921E-001  5.039905669049857E-001 
 5.105852166235324E-001  5.172661564589307E-001  5.240345155059140E-001  5.308914376332707E-001 
 5.378380816771604E-001  5.448756216369602E-001  5.520052468736732E-001  5.592281623109340E-001 
 5.665455886386424E-001  5.739587625192639E-001  5.814689367968287E-001  5.890773807086643E-001 
 5.967853800999020E-001  6.045942376407825E-001  6.125052730468169E-001  6.205198233018182E-001 
 6.286392428838546E-001  6.368649039941607E-001  6.451981967890418E-001  6.536405296148143E-001 
 6.621933292458196E-001  6.708580411255515E-001  6.796361296109407E-001  6.885290782198338E-001 
 6.975383898817119E-001  7.066655871916889E-001  7.159122126678338E-001  7.252798290118598E-001 
 7.347700193732249E-001  7.443843876166879E-001  7.541245585933662E-001  7.639921784153351E-001 
 7.739889147338314E-001  7.841164570210860E-001  7.943765168558503E-001  8.047708282126563E-001 
 8.153011477548626E-001  8.259692551315351E-001  8.367769532782114E-001  8.477260687216021E-001 
 8.588184518882765E-001  8.700559774173912E-001  8.814405444775069E-001  8.929740770875529E-001 
 9.046585244419915E-001  9.164958612402354E-001  9.284880880203779E-001  9.406372314972873E-001 
 9.529453449051291E-001  9.654145083443602E-001  9.780468291332813E-001  9.908444421641721E-001 
 1.003809510264094E+000  1.016944224560415E+000  1.030250804851112E+000  1.043731499979925E+000 
 1.057388588216417E+000  1.071224377641005E+000  1.085241206535031E+000  1.099441443775941E+000 
 1.113827489237626E+000  1.128401774196010E+000  1.143166761739938E+000  1.158124947187447E+000 
 1.173278858507481E+000  1.188631056747119E+000  1.204184136464407E+000  1.219940726166830E+000 
 1.235903488755552E+000  1.252075121975444E+000  1.268458358871010E+000  1.285055968248278E+000 
 1.301870755142738E+000  1.318905561293395E+000  1.336163265623033E+000  1.353646784724760E+000 
 1.371359073354915E+000  1.389303124932435E+000  1.407481972044744E+000  1.425898686960272E+000 
 1.444556382147673E+000  1.463458210801841E+000  1.482607367376807E+000  1.502007088125608E+000 
 1.521660651647227E+000  1.541571379440672E+000  1.561742636466331E+000  1.582177831714651E+000 
 1.602880418782268E+000  1.623853896455669E+000  1.645101809302501E+000  1.666627748270606E+000 
 1.688435351294904E+000  1.710528303912210E+000  1.732910339884101E+000  1.755585241827926E+000 
 1.778556841856083E+000  1.801829022223650E+000  1.825405715984501E+000  1.849290907655996E+000 
 1.873488633892375E+000  1.898002984166967E+000  1.922838101463317E+000  1.947998182975352E+000 
 1.973487480816733E+000  1.999310302739463E+000  2.025471012861909E+000  2.051974032406346E+000 
 2.078823840446155E+000  2.106024974662802E+000  2.133582032112710E+000  2.161499670004177E+000 
 2.189782606484452E+000  2.218435621437118E+000  2.247463557289898E+000  2.276871319833041E+000 
 2.306663879048410E+000  2.336846269949421E+000  2.367423593431974E+000  2.398401017136514E+000 
 2.429783776321381E+000  2.461577174747561E+000  2.493786585575067E+000  2.526417452270988E+000 
 2.559475289529461E+000  2.592965684203663E+000  2.626894296250004E+000  2.661266859684674E+000 
 2.696089183552703E+000  2.731367152909707E+000  2.767106729816470E+000  2.803313954346553E+000 
 2.839994945607079E+000  2.877155902772876E+000  2.914803106134151E+000  2.952942918157876E+000 
 2.991581784563059E+000  3.030726235410087E+000  3.070382886204327E+000  3.110558439014139E+000 
 3.151259683603574E+000  3.192493498579840E+000  3.234266852555810E+000  3.276586805327730E+000 
 3.319460509068344E+000  3.362895209535627E+000  3.406898247297338E+000  3.451477058971590E+000 
 3.496639178483657E+000  3.542392238339227E+000  3.588743970914313E+000  3.635702209762042E+000 
 3.683274890936543E+000  3.731470054334162E+000  3.780295845052224E+000  3.829760514765570E+000 
 3.879872423121118E+000  3.930640039150640E+000  3.982071942702080E+000  4.034176825889555E+000 
 4.086963494562335E+000  4.140440869793064E+000  4.194617989385439E+000  4.249504009401617E+000 
 4.305108205709614E+000  4.361439975550949E+000  4.418508839128802E+000  4.476324441216947E+000 
 4.534896552789742E+000  4.594235072673451E+000  4.654350029219166E+000  4.715251581997622E+000 
 4.776950023516191E+000  4.839455780958336E+000  4.902779417945847E+000  4.966931636324069E+000 
 5.031923277970609E+000  5.097765326627590E+000  5.164468909757946E+000  5.232045300425987E+000 
 5.300505919202573E+000  5.369862336095221E+000  5.440126272503462E+000  5.511309603199782E+000 
 5.583424358336493E+000  5.656482725478853E+000  5.730497051664795E+000  5.805479845491606E+000 
 5.881443779229908E+000  5.958401690965306E+000  6.036366586768048E+000  6.115351642891092E+000 
 6.195370207996923E+000  6.276435805413476E+000  6.358562135419668E+000  6.441763077560738E+000 
 6.526052692993935E+000  6.611445226864886E+000  6.697955110715055E+000  6.785596964920718E+000 
 6.874385601163827E+000  6.964336024935237E+000  7.055463438070655E+000  7.147783241319792E+000 
 7.241311036949128E+000  7.336062631378728E+000  7.432054037853571E+000  7.529301479149818E+000 
 7.627821390316509E+000  7.727630421453113E+000  7.828745440523467E+000  7.931183536206426E+000 
 8.034962020783988E+000  8.140098433067051E+000  8.246610541359521E+000  8.354516346461214E+000 
 8.463834084710015E+000  8.574582231063877E+000  8.686779502223125E+000  8.800444859793622E+000 
 8.915597513491335E+000  9.032256924388813E+000  9.150442808204158E+000  9.270175138633029E+000 
 9.391474150724239E+000  9.514360344299542E+000  9.638854487418127E+000  9.764977619886496E+000 
 9.892751056814232E+000  1.002219639221626E+001  1.015333550266236E+001  1.028619055097434E+001 
 1.042078398997156E+001  1.055713856626556E+001  1.069527732410427E+001  1.083522360926655E+001 
 1.097700107300767E+001  1.112063367605646E+001  1.126614569266468E+001  1.141356171470949E+001 
 1.156290665584945E+001  1.171420575573510E+001  1.186748458427440E+001  1.202276904595421E+001 
 1.218008538421814E+001  1.233946018590178E+001  1.250092038572598E+001  1.266449327084873E+001 
 1.283020648547698E+001  1.299808803553841E+001  1.316816629341455E+001  1.334047000273579E+001 
 1.351502828323910E+001  1.369187063568935E+001  1.387102694686501E+001  1.405252749460908E+001 
 1.423640295294611E+001  1.442268439726620E+001  1.461140330957682E+001  1.480259158382331E+001 
 1.499628153127906E+001  1.519250588600620E+001  1.539129781038771E+001  1.559269090073195E+001 
 1.579671919295056E+001  1.600341716831047E+001  1.621281975926150E+001  1.642496235533993E+001 
 1.663988080914941E+001  1.685761144242016E+001  1.707819105214743E+001  1.730165691681026E+001 
 1.752804680267164E+001  1.775739897016112E+001  1.798975218034089E+001  1.822514570145649E+001 
 1.846361931557324E+001  1.870521332529952E+001  1.894996856059800E+001  1.919792638568598E+001 
 1.944912870602606E+001  1.970361797540830E+001  1.996143720312487E+001  2.022262996123892E+001 
 2.048724039194823E+001  2.075531321504539E+001  2.102689373547555E+001  2.130202785099305E+001 
 2.158076205991825E+001  2.186314346899588E+001  2.214921980135617E+001  2.243903940458017E+001 
 2.273265125887063E+001  2.303010498532975E+001  2.333145085434527E+001  2.363673979408628E+001 
 2.394602339911022E+001  2.425935393908246E+001  2.457678436761001E+001  2.489836833119086E+001 
 2.522416017828017E+001  2.555421496847554E+001  2.588858848182209E+001  2.622733722823941E+001 
 2.657051845707191E+001  2.691819016676405E+001  2.727041111466228E+001  2.762724082694509E+001 
 2.798873960868317E+001  2.835496855403103E+001  2.872598955655208E+001  2.910186531967882E+001 
 2.948265936730985E+001  2.986843605454553E+001  3.025926057856420E+001  3.065519898964061E+001 
 3.105631820230860E+001  3.146268600666989E+001  3.187437107985049E+001  3.229144299760767E+001 
 3.271397224608820E+001  3.314203023374074E+001  3.357568930338402E+001  3.401502274443295E+001 
 3.446010480528475E+001  3.491101070586701E+001  3.536781665035016E+001  3.583059984002604E+001 
 3.629943848635517E+001  3.677441182418468E+001  3.725560012513913E+001  3.774308471118666E+001 
 3.823694796838258E+001  3.873727336079279E+001  3.924414544459943E+001  3.975764988239114E+001 
 4.027787345763995E+001  4.080490408936834E+001  4.133883084700746E+001  4.187974396545013E+001 
 4.242773486030081E+001  4.298289614332499E+001  4.354532163810084E+001  4.411510639587563E+001 
 4.469234671162952E+001  4.527714014034979E+001  4.586958551351776E+001  4.646978295581156E+001 
 4.707783390202746E+001  4.769384111422261E+001  4.831790869908203E+001  4.895014212551288E+001 
 4.959064824246902E+001  5.023953529700876E+001  5.089691295258856E+001  5.156289230759694E+001 
 5.223758591412996E+001  5.292110779701298E+001  5.361357347307105E+001  5.431509997065156E+001 
 5.502580584940231E+001  5.574581122030834E+001  5.647523776599103E+001  5.721420876127271E+001 
 5.796284909401038E+001  5.872128528620214E+001  5.948964551536960E+001  6.026805963622027E+001 
 6.105665920259327E+001  6.185557748969227E+001  6.266494951660928E+001  6.348491206914336E+001 
 6.431560372291725E+001  6.515716486679766E+001  6.600973772662091E+001  6.687346638922953E+001 
 6.774849682682326E+001  6.863497692162868E+001  6.953305649089175E+001  7.044288731219717E+001 
 7.136462314911925E+001  7.229841977720824E+001  7.324443501031679E+001  7.420282872727095E+001 
 7.517376289888992E+001  7.615740161535963E+001  7.715391111396433E+001  7.816345980718104E+001 
 7.918621831114177E+001  8.022235947446809E+001  8.127205840748242E+001  8.233549251180300E+001 
 8.341284151032447E+001  8.450428747759186E+001  8.561001487057131E+001  8.673021055982403E+001 