
     Program PWSCF v.6.1 starts on  2Jun2017 at  7:12:18 

     This program is part of the open-source Quantum ESPRESSO suite
     for quantum simulation of materials; please cite
         "P. Giannozzi et al., J. Phys.:Condens. Matter 21 395502 (2009);
          URL http://www.quantum-espresso.org", 
     in publications or presentations arising from this work. More details at
     http://www.quantum-espresso.org/quote

     Parallel version (MPI & OpenMP), running on       8 processor cores
     Number of MPI processes:                 8
     Threads/MPI process:                     1
     R & G space division:  proc/nbgrp/npool/nimage =       8
     Reading input from nscf.in
Warning: card &IONS ignored
Warning: card / ignored

     Current dimensions of program PWSCF are:
     Max number of different atomic species (ntypx) = 10
     Max number of k-points (npk) =  40000
     Max angular momentum in pseudopotentials (lmaxx) =  3

     Atomic positions and unit cell read from directory:
     ./tmp/pwscf.save/
 
     WARNING: atomic wfc #  4 for atom type 1 has zero norm
               file 06-c.lda.fhi.UPF: wavefunction(s)  4f renormalized

     Subspace diagonalization in iterative solution of the eigenvalue problem:
     a serial algorithm will be used

 
     Parallelization info
     --------------------
     sticks:   dense  smooth     PW     G-vecs:    dense   smooth      PW
     Min         120     120     37                 2521     2521     433
     Max         121     121     38                 2524     2524     436
     Sum         967     967    301                20179    20179    3479
 


     bravais-lattice index     =            0
     lattice parameter (alat)  =       5.9717  a.u.
     unit-cell volume          =     150.5858 (a.u.)^3
     number of atoms/cell      =            2
     number of atomic types    =            2
     number of electrons       =        17.00
     number of Kohn-Sham states=           24
     kinetic-energy cutoff     =     100.0000  Ry
     charge density cutoff     =     400.0000  Ry
     Exchange-correlation      = SLA-PW ( 1  4  0  0 0 0)

     celldm(1)=   5.971724  celldm(2)=   0.000000  celldm(3)=   0.000000
     celldm(4)=   0.000000  celldm(5)=   0.000000  celldm(6)=   0.000000

     crystal axes: (cart. coord. in units of alat)
               a(1) = (   1.000000   0.000000   0.000000 )  
               a(2) = (   0.500000   0.866025   0.000000 )  
               a(3) = (   0.500000   0.288675   0.816497 )  

     reciprocal axes: (cart. coord. in units 2 pi/alat)
               b(1) = (  1.000000 -0.577350 -0.408248 )  
               b(2) = (  0.000000  1.154701 -0.408248 )  
               b(3) = (  0.000000  0.000000  1.224745 )  


     PseudoPot. # 1 for Nb read from file:
     ./nb.fhi.UPF
     MD5 check sum: 4f71706d5dc12bdd9bf23a8f1f1a4338
     Pseudo is Norm-conserving, Zval = 13.0
     Generated using FHI98PP, converted with fhi2upf.x v.5.0.2
     Using radial grid of 1171 points,  3 beta functions with: 
                l(1) =   0
                l(2) =   1
                l(3) =   2

     PseudoPot. # 2 for  C read from file:
     ./06-c.lda.fhi.UPF
     MD5 check sum: 13ff76dfb29e90984447383659675a25
     Pseudo is Norm-conserving, Zval =  4.0
     Generated using FHI98PP, converted with fhi2upf.x v.5.0.1
     Using radial grid of  461 points,  3 beta functions with: 
                l(1) =   0
                l(2) =   1
                l(3) =   3

     atomic species   valence    mass     pseudopotential
        Nb            13.00    92.90640     Nb( 1.00)
        C              4.00    12.01070      C( 1.00)

     12 Sym. Ops., with inversion, found


                                    s                        frac. trans.

      isym =  1     identity                                     

 cryst.   s( 1) = (     1          0          0      )
                  (     0          1          0      )
                  (     0          0          1      )

 cart.    s( 1) = (  1.0000000  0.0000000  0.0000000 )
                  (  0.0000000  1.0000000  0.0000000 )
                  (  0.0000000  0.0000000  1.0000000 )


      isym =  2     180 deg rotation - cart. axis [1,0,0]        

 cryst.   s( 2) = (     1          0          0      )
                  (     1         -1          0      )
                  (     1          0         -1      )

 cart.    s( 2) = (  1.0000000  0.0000000  0.0000000 )
                  (  0.0000000 -1.0000000 -0.0000000 )
                  (  0.0000000  0.0000000 -1.0000000 )


      isym =  3     120 deg rotation - cryst. axis [0,0,1]       

 cryst.   s( 3) = (    -1          1          0      )
                  (    -1          0          0      )
                  (    -1          0          1      )

 cart.    s( 3) = ( -0.5000000 -0.8660254 -0.0000000 )
                  (  0.8660254 -0.5000000 -0.0000000 )
                  (  0.0000000  0.0000000  1.0000000 )


      isym =  4     120 deg rotation - cryst. axis [0,0,-1]      

 cryst.   s( 4) = (     0         -1          0      )
                  (     1         -1          0      )
                  (     0         -1          1      )

 cart.    s( 4) = ( -0.5000000  0.8660254  0.0000000 )
                  ( -0.8660254 -0.5000000 -0.0000000 )
                  (  0.0000000  0.0000000  1.0000000 )


      isym =  5     180 deg rotation - cryst. axis [0,1,0]       

 cryst.   s( 5) = (     0         -1          0      )
                  (    -1          0          0      )
                  (     0          0         -1      )

 cart.    s( 5) = ( -0.5000000 -0.8660254 -0.0000000 )
                  ( -0.8660254  0.5000000  0.0000000 )
                  (  0.0000000  0.0000000 -1.0000000 )


      isym =  6     180 deg rotation - cryst. axis [1,1,0]       

 cryst.   s( 6) = (    -1          1          0      )
                  (     0          1          0      )
                  (     0          1         -1      )

 cart.    s( 6) = ( -0.5000000  0.8660254  0.0000000 )
                  (  0.8660254  0.5000000  0.0000000 )
                  (  0.0000000  0.0000000 -1.0000000 )


      isym =  7     inversion                                    

 cryst.   s( 7) = (    -1          0          0      )
                  (     0         -1          0      )
                  (     0          0         -1      )

 cart.    s( 7) = ( -1.0000000  0.0000000  0.0000000 )
                  (  0.0000000 -1.0000000 -0.0000000 )
                  (  0.0000000  0.0000000 -1.0000000 )


      isym =  8     inv. 180 deg rotation - cart. axis [1,0,0]   

 cryst.   s( 8) = (    -1          0          0      )
                  (    -1          1          0      )
                  (    -1          0          1      )

 cart.    s( 8) = ( -1.0000000  0.0000000  0.0000000 )
                  (  0.0000000  1.0000000  0.0000000 )
                  (  0.0000000  0.0000000  1.0000000 )


      isym =  9     inv. 120 deg rotation - cryst. axis [0,0,1]  

 cryst.   s( 9) = (     1         -1          0      )
                  (     1          0          0      )
                  (     1          0         -1      )

 cart.    s( 9) = (  0.5000000  0.8660254  0.0000000 )
                  ( -0.8660254  0.5000000  0.0000000 )
                  (  0.0000000  0.0000000 -1.0000000 )


      isym = 10     inv. 120 deg rotation - cryst. axis [0,0,-1] 

 cryst.   s(10) = (     0          1          0      )
                  (    -1          1          0      )
                  (     0          1         -1      )

 cart.    s(10) = (  0.5000000 -0.8660254 -0.0000000 )
                  (  0.8660254  0.5000000  0.0000000 )
                  (  0.0000000  0.0000000 -1.0000000 )


      isym = 11     inv. 180 deg rotation - cryst. axis [0,1,0]  

 cryst.   s(11) = (     0          1          0      )
                  (     1          0          0      )
                  (     0          0          1      )

 cart.    s(11) = (  0.5000000  0.8660254  0.0000000 )
                  (  0.8660254 -0.5000000 -0.0000000 )
                  (  0.0000000  0.0000000  1.0000000 )


      isym = 12     inv. 180 deg rotation - cryst. axis [1,1,0]  

 cryst.   s(12) = (     1         -1          0      )
                  (     0         -1          0      )
                  (     0         -1          1      )

 cart.    s(12) = (  0.5000000 -0.8660254 -0.0000000 )
                  ( -0.8660254 -0.5000000 -0.0000000 )
                  (  0.0000000  0.0000000  1.0000000 )


   Cartesian axes

     site n.     atom                  positions (alat units)
         1           Nb  tau(   1) = (   0.0000000   0.0000000   0.0000000  )
         2           C   tau(   2) = (   1.0000000   0.5773503   0.4082483  )

   Crystallographic axes

     site n.     atom                  positions (cryst. coord.)
         1           Nb  tau(   1) = (  0.0000000  0.0000000  0.0000000  )
         2           C   tau(   2) = (  0.5000000  0.5000000  0.5000000  )

     number of k points=   580  Fermi-Dirac smearing, width (Ry)=  0.0200
                       cart. coord. in units 2pi/alat
        k(    1) = (   0.0000000   0.0000000   0.0000000), wk =   0.0003429
        k(    2) = (   0.0000000   0.0000000   0.0680414), wk =   0.0006859
        k(    3) = (   0.0000000   0.0000000   0.1360828), wk =   0.0006859
        k(    4) = (   0.0000000   0.0000000   0.2041241), wk =   0.0006859
        k(    5) = (   0.0000000   0.0000000   0.2721655), wk =   0.0006859
        k(    6) = (   0.0000000   0.0000000   0.3402069), wk =   0.0006859
        k(    7) = (   0.0000000   0.0000000   0.4082483), wk =   0.0006859
        k(    8) = (   0.0000000   0.0000000   0.4762897), wk =   0.0006859
        k(    9) = (   0.0000000   0.0000000   0.5443311), wk =   0.0006859
        k(   10) = (   0.0000000   0.0000000  -0.6123724), wk =   0.0003429
        k(   11) = (   0.0000000   0.0641500  -0.0226805), wk =   0.0020576
        k(   12) = (   0.0000000   0.0641500   0.0453609), wk =   0.0020576
        k(   13) = (   0.0000000   0.0641500   0.1134023), wk =   0.0020576
        k(   14) = (   0.0000000   0.0641500   0.1814437), wk =   0.0020576
        k(   15) = (   0.0000000   0.0641500   0.2494851), wk =   0.0020576
        k(   16) = (   0.0000000   0.0641500   0.3175264), wk =   0.0020576
        k(   17) = (   0.0000000   0.0641500   0.3855678), wk =   0.0020576
        k(   18) = (   0.0000000   0.0641500   0.4536092), wk =   0.0020576
        k(   19) = (   0.0000000   0.0641500   0.5216506), wk =   0.0020576
        k(   20) = (   0.0000000   0.0641500  -0.6350529), wk =   0.0020576
        k(   21) = (   0.0000000   0.0641500  -0.5670115), wk =   0.0020576
        k(   22) = (   0.0000000   0.0641500  -0.4989701), wk =   0.0020576
        k(   23) = (   0.0000000   0.0641500  -0.4309288), wk =   0.0020576
        k(   24) = (   0.0000000   0.0641500  -0.3628874), wk =   0.0020576
        k(   25) = (   0.0000000   0.0641500  -0.2948460), wk =   0.0020576
        k(   26) = (   0.0000000   0.0641500  -0.2268046), wk =   0.0020576
        k(   27) = (   0.0000000   0.0641500  -0.1587632), wk =   0.0020576
        k(   28) = (   0.0000000   0.0641500  -0.0907218), wk =   0.0020576
        k(   29) = (   0.0000000   0.1283001  -0.0453609), wk =   0.0020576
        k(   30) = (   0.0000000   0.1283001   0.0226805), wk =   0.0020576
        k(   31) = (   0.0000000   0.1283001   0.0907218), wk =   0.0020576
        k(   32) = (   0.0000000   0.1283001   0.1587632), wk =   0.0020576
        k(   33) = (   0.0000000   0.1283001   0.2268046), wk =   0.0020576
        k(   34) = (   0.0000000   0.1283001   0.2948460), wk =   0.0020576
        k(   35) = (   0.0000000   0.1283001   0.3628874), wk =   0.0020576
        k(   36) = (   0.0000000   0.1283001   0.4309288), wk =   0.0020576
        k(   37) = (   0.0000000   0.1283001   0.4989701), wk =   0.0020576
        k(   38) = (   0.0000000   0.1283001  -0.6577334), wk =   0.0020576
        k(   39) = (   0.0000000   0.1283001  -0.5896920), wk =   0.0020576
        k(   40) = (   0.0000000   0.1283001  -0.5216506), wk =   0.0020576
        k(   41) = (   0.0000000   0.1283001  -0.4536092), wk =   0.0020576
        k(   42) = (   0.0000000   0.1283001  -0.3855678), wk =   0.0020576
        k(   43) = (   0.0000000   0.1283001  -0.3175264), wk =   0.0020576
        k(   44) = (   0.0000000   0.1283001  -0.2494851), wk =   0.0020576
        k(   45) = (   0.0000000   0.1283001  -0.1814437), wk =   0.0020576
        k(   46) = (   0.0000000   0.1283001  -0.1134023), wk =   0.0020576
        k(   47) = (   0.0000000   0.1924501  -0.0680414), wk =   0.0020576
        k(   48) = (   0.0000000   0.1924501   0.0000000), wk =   0.0020576
        k(   49) = (   0.0000000   0.1924501   0.0680414), wk =   0.0020576
        k(   50) = (   0.0000000   0.1924501   0.1360828), wk =   0.0020576
        k(   51) = (   0.0000000   0.1924501   0.2041241), wk =   0.0020576
        k(   52) = (   0.0000000   0.1924501   0.2721655), wk =   0.0020576
        k(   53) = (   0.0000000   0.1924501   0.3402069), wk =   0.0020576
        k(   54) = (   0.0000000   0.1924501   0.4082483), wk =   0.0020576
        k(   55) = (   0.0000000   0.1924501   0.4762897), wk =   0.0020576
        k(   56) = (   0.0000000   0.1924501  -0.6804138), wk =   0.0020576
        k(   57) = (   0.0000000   0.1924501  -0.6123724), wk =   0.0020576
        k(   58) = (   0.0000000   0.1924501  -0.5443311), wk =   0.0020576
        k(   59) = (   0.0000000   0.1924501  -0.4762897), wk =   0.0020576
        k(   60) = (   0.0000000   0.1924501  -0.4082483), wk =   0.0020576
        k(   61) = (   0.0000000   0.1924501  -0.3402069), wk =   0.0020576
        k(   62) = (   0.0000000   0.1924501  -0.2721655), wk =   0.0020576
        k(   63) = (   0.0000000   0.1924501  -0.2041241), wk =   0.0020576
        k(   64) = (   0.0000000   0.1924501  -0.1360828), wk =   0.0020576
        k(   65) = (   0.0000000   0.2566001  -0.0907218), wk =   0.0020576
        k(   66) = (   0.0000000   0.2566001  -0.0226805), wk =   0.0020576
        k(   67) = (   0.0000000   0.2566001   0.0453609), wk =   0.0020576
        k(   68) = (   0.0000000   0.2566001   0.1134023), wk =   0.0020576
        k(   69) = (   0.0000000   0.2566001   0.1814437), wk =   0.0020576
        k(   70) = (   0.0000000   0.2566001   0.2494851), wk =   0.0020576
        k(   71) = (   0.0000000   0.2566001   0.3175264), wk =   0.0020576
        k(   72) = (   0.0000000   0.2566001   0.3855678), wk =   0.0020576
        k(   73) = (   0.0000000   0.2566001   0.4536092), wk =   0.0020576
        k(   74) = (   0.0000000   0.2566001  -0.7030943), wk =   0.0020576
        k(   75) = (   0.0000000   0.2566001  -0.6350529), wk =   0.0020576
        k(   76) = (   0.0000000   0.2566001  -0.5670115), wk =   0.0020576
        k(   77) = (   0.0000000   0.2566001  -0.4989701), wk =   0.0020576
        k(   78) = (   0.0000000   0.2566001  -0.4309288), wk =   0.0020576
        k(   79) = (   0.0000000   0.2566001  -0.3628874), wk =   0.0020576
        k(   80) = (   0.0000000   0.2566001  -0.2948460), wk =   0.0020576
        k(   81) = (   0.0000000   0.2566001  -0.2268046), wk =   0.0020576
        k(   82) = (   0.0000000   0.2566001  -0.1587632), wk =   0.0020576
        k(   83) = (   0.0000000   0.3207501  -0.1134023), wk =   0.0020576
        k(   84) = (   0.0000000   0.3207501  -0.0453609), wk =   0.0020576
        k(   85) = (   0.0000000   0.3207501   0.0226805), wk =   0.0020576
        k(   86) = (   0.0000000   0.3207501   0.0907218), wk =   0.0020576
        k(   87) = (   0.0000000   0.3207501   0.1587632), wk =   0.0020576
        k(   88) = (   0.0000000   0.3207501   0.2268046), wk =   0.0020576
        k(   89) = (   0.0000000   0.3207501   0.2948460), wk =   0.0020576
        k(   90) = (   0.0000000   0.3207501   0.3628874), wk =   0.0020576
        k(   91) = (   0.0000000   0.3207501   0.4309288), wk =   0.0020576
        k(   92) = (   0.0000000   0.3207501  -0.7257747), wk =   0.0020576
        k(   93) = (   0.0000000   0.3207501  -0.6577334), wk =   0.0020576
        k(   94) = (   0.0000000   0.3207501  -0.5896920), wk =   0.0020576
        k(   95) = (   0.0000000   0.3207501  -0.5216506), wk =   0.0020576
        k(   96) = (   0.0000000   0.3207501  -0.4536092), wk =   0.0020576
        k(   97) = (   0.0000000   0.3207501  -0.3855678), wk =   0.0020576
        k(   98) = (   0.0000000   0.3207501  -0.3175264), wk =   0.0020576
        k(   99) = (   0.0000000   0.3207501  -0.2494851), wk =   0.0020576
        k(  100) = (   0.0000000   0.3207501  -0.1814437), wk =   0.0020576
        k(  101) = (   0.0000000   0.3849002  -0.1360828), wk =   0.0020576
        k(  102) = (   0.0000000   0.3849002  -0.0680414), wk =   0.0020576
        k(  103) = (   0.0000000   0.3849002   0.0000000), wk =   0.0020576
        k(  104) = (   0.0000000   0.3849002   0.0680414), wk =   0.0020576
        k(  105) = (   0.0000000   0.3849002   0.1360828), wk =   0.0020576
        k(  106) = (   0.0000000   0.3849002   0.2041241), wk =   0.0020576
        k(  107) = (   0.0000000   0.3849002   0.2721655), wk =   0.0020576
        k(  108) = (   0.0000000   0.3849002   0.3402069), wk =   0.0020576
        k(  109) = (   0.0000000   0.3849002   0.4082483), wk =   0.0020576
        k(  110) = (   0.0000000   0.3849002  -0.7484552), wk =   0.0020576
        k(  111) = (   0.0000000   0.3849002  -0.6804138), wk =   0.0020576
        k(  112) = (   0.0000000   0.3849002  -0.6123724), wk =   0.0020576
        k(  113) = (   0.0000000   0.3849002  -0.5443311), wk =   0.0020576
        k(  114) = (   0.0000000   0.3849002  -0.4762897), wk =   0.0020576
        k(  115) = (   0.0000000   0.3849002  -0.4082483), wk =   0.0020576
        k(  116) = (   0.0000000   0.3849002  -0.3402069), wk =   0.0020576
        k(  117) = (   0.0000000   0.3849002  -0.2721655), wk =   0.0020576
        k(  118) = (   0.0000000   0.3849002  -0.2041241), wk =   0.0020576
        k(  119) = (   0.0000000   0.4490502  -0.1587632), wk =   0.0020576
        k(  120) = (   0.0000000   0.4490502  -0.0907218), wk =   0.0020576
        k(  121) = (   0.0000000   0.4490502  -0.0226805), wk =   0.0020576
        k(  122) = (   0.0000000   0.4490502   0.0453609), wk =   0.0020576
        k(  123) = (   0.0000000   0.4490502   0.1134023), wk =   0.0020576
        k(  124) = (   0.0000000   0.4490502   0.1814437), wk =   0.0020576
        k(  125) = (   0.0000000   0.4490502   0.2494851), wk =   0.0020576
        k(  126) = (   0.0000000   0.4490502   0.3175264), wk =   0.0020576
        k(  127) = (   0.0000000   0.4490502   0.3855678), wk =   0.0020576
        k(  128) = (   0.0000000   0.4490502  -0.7711357), wk =   0.0020576
        k(  129) = (   0.0000000   0.4490502  -0.7030943), wk =   0.0020576
        k(  130) = (   0.0000000   0.4490502  -0.6350529), wk =   0.0020576
        k(  131) = (   0.0000000   0.4490502  -0.5670115), wk =   0.0020576
        k(  132) = (   0.0000000   0.4490502  -0.4989701), wk =   0.0020576
        k(  133) = (   0.0000000   0.4490502  -0.4309288), wk =   0.0020576
        k(  134) = (   0.0000000   0.4490502  -0.3628874), wk =   0.0020576
        k(  135) = (   0.0000000   0.4490502  -0.2948460), wk =   0.0020576
        k(  136) = (   0.0000000   0.4490502  -0.2268046), wk =   0.0020576
        k(  137) = (   0.0000000   0.5132002  -0.1814437), wk =   0.0020576
        k(  138) = (   0.0000000   0.5132002  -0.1134023), wk =   0.0020576
        k(  139) = (   0.0000000   0.5132002  -0.0453609), wk =   0.0020576
        k(  140) = (   0.0000000   0.5132002   0.0226805), wk =   0.0020576
        k(  141) = (   0.0000000   0.5132002   0.0907218), wk =   0.0020576
        k(  142) = (   0.0000000   0.5132002   0.1587632), wk =   0.0020576
        k(  143) = (   0.0000000   0.5132002   0.2268046), wk =   0.0020576
        k(  144) = (   0.0000000   0.5132002   0.2948460), wk =   0.0020576
        k(  145) = (   0.0000000   0.5132002   0.3628874), wk =   0.0020576
        k(  146) = (   0.0000000   0.5132002  -0.7938161), wk =   0.0020576
        k(  147) = (   0.0000000   0.5132002  -0.7257747), wk =   0.0020576
        k(  148) = (   0.0000000   0.5132002  -0.6577334), wk =   0.0020576
        k(  149) = (   0.0000000   0.5132002  -0.5896920), wk =   0.0020576
        k(  150) = (   0.0000000   0.5132002  -0.5216506), wk =   0.0020576
        k(  151) = (   0.0000000   0.5132002  -0.4536092), wk =   0.0020576
        k(  152) = (   0.0000000   0.5132002  -0.3855678), wk =   0.0020576
        k(  153) = (   0.0000000   0.5132002  -0.3175264), wk =   0.0020576
        k(  154) = (   0.0000000   0.5132002  -0.2494851), wk =   0.0020576
        k(  155) = (   0.0000000  -0.5773503   0.2041241), wk =   0.0010288
        k(  156) = (   0.0000000  -0.5773503   0.2721655), wk =   0.0020576
        k(  157) = (   0.0000000  -0.5773503   0.3402069), wk =   0.0020576
        k(  158) = (   0.0000000  -0.5773503   0.4082483), wk =   0.0020576
        k(  159) = (   0.0000000  -0.5773503   0.4762897), wk =   0.0020576
        k(  160) = (   0.0000000  -0.5773503   0.5443311), wk =   0.0020576
        k(  161) = (   0.0000000  -0.5773503   0.6123724), wk =   0.0020576
        k(  162) = (   0.0000000  -0.5773503   0.6804138), wk =   0.0020576
        k(  163) = (   0.0000000  -0.5773503   0.7484552), wk =   0.0020576
        k(  164) = (   0.0000000  -0.5773503  -0.4082483), wk =   0.0010288
        k(  165) = (   0.0555556   0.0962250  -0.0680414), wk =   0.0041152
        k(  166) = (   0.0555556   0.0962250  -0.0000000), wk =   0.0020576
        k(  167) = (   0.0555556   0.0962250   0.1360828), wk =   0.0041152
        k(  168) = (   0.0555556   0.0962250   0.2041241), wk =   0.0041152
        k(  169) = (   0.0555556   0.0962250   0.2721655), wk =   0.0041152
        k(  170) = (   0.0555556   0.0962250   0.3402069), wk =   0.0041152
        k(  171) = (   0.0555556   0.0962250   0.4082483), wk =   0.0041152
        k(  172) = (   0.0555556   0.0962250   0.4762897), wk =   0.0041152
        k(  173) = (   0.0555556   0.0962250  -0.6804138), wk =   0.0041152
        k(  174) = (   0.0555556   0.0962250  -0.6123724), wk =   0.0020576
        k(  175) = (   0.0555556   0.1603751  -0.0907218), wk =   0.0041152
        k(  176) = (   0.0555556   0.1603751  -0.0226805), wk =   0.0041152
        k(  177) = (   0.0555556   0.1603751   0.0453609), wk =   0.0041152
        k(  178) = (   0.0555556   0.1603751   0.1134023), wk =   0.0041152
        k(  179) = (   0.0555556   0.1603751   0.1814437), wk =   0.0041152
        k(  180) = (   0.0555556   0.1603751   0.2494851), wk =   0.0041152
        k(  181) = (   0.0555556   0.1603751   0.3175264), wk =   0.0041152
        k(  182) = (   0.0555556   0.1603751   0.3855678), wk =   0.0041152
        k(  183) = (   0.0555556   0.1603751   0.4536092), wk =   0.0041152
        k(  184) = (   0.0555556   0.1603751  -0.7030943), wk =   0.0041152
        k(  185) = (   0.0555556   0.1603751  -0.6350529), wk =   0.0041152
        k(  186) = (   0.0555556   0.1603751  -0.5670115), wk =   0.0041152
        k(  187) = (   0.0555556   0.1603751  -0.4989701), wk =   0.0041152
        k(  188) = (   0.0555556   0.1603751  -0.4309288), wk =   0.0041152
        k(  189) = (   0.0555556   0.1603751  -0.3628874), wk =   0.0041152
        k(  190) = (   0.0555556   0.1603751  -0.2948460), wk =   0.0041152
        k(  191) = (   0.0555556   0.1603751  -0.2268046), wk =   0.0041152
        k(  192) = (   0.0555556   0.1603751  -0.1587632), wk =   0.0041152
        k(  193) = (   0.0555556   0.2245251  -0.1134023), wk =   0.0041152
        k(  194) = (   0.0555556   0.2245251  -0.0453609), wk =   0.0041152
        k(  195) = (   0.0555556   0.2245251   0.0226805), wk =   0.0041152
        k(  196) = (   0.0555556   0.2245251   0.0907218), wk =   0.0041152
        k(  197) = (   0.0555556   0.2245251   0.1587632), wk =   0.0041152
        k(  198) = (   0.0555556   0.2245251   0.2268046), wk =   0.0041152
        k(  199) = (   0.0555556   0.2245251   0.2948460), wk =   0.0041152
        k(  200) = (   0.0555556   0.2245251   0.3628874), wk =   0.0041152
        k(  201) = (   0.0555556   0.2245251   0.4309288), wk =   0.0041152
        k(  202) = (   0.0555556   0.2245251  -0.7257747), wk =   0.0041152
        k(  203) = (   0.0555556   0.2245251  -0.6577334), wk =   0.0041152
        k(  204) = (   0.0555556   0.2245251  -0.5896920), wk =   0.0041152
        k(  205) = (   0.0555556   0.2245251  -0.5216506), wk =   0.0041152
        k(  206) = (   0.0555556   0.2245251  -0.4536092), wk =   0.0041152
        k(  207) = (   0.0555556   0.2245251  -0.3855678), wk =   0.0041152
        k(  208) = (   0.0555556   0.2245251  -0.3175264), wk =   0.0041152
        k(  209) = (   0.0555556   0.2245251  -0.2494851), wk =   0.0041152
        k(  210) = (   0.0555556   0.2245251  -0.1814437), wk =   0.0041152
        k(  211) = (   0.0555556   0.2886751  -0.1360828), wk =   0.0041152
        k(  212) = (   0.0555556   0.2886751  -0.0680414), wk =   0.0041152
        k(  213) = (   0.0555556   0.2886751  -0.0000000), wk =   0.0041152
        k(  214) = (   0.0555556   0.2886751   0.0680414), wk =   0.0041152
        k(  215) = (   0.0555556   0.2886751   0.1360828), wk =   0.0041152
        k(  216) = (   0.0555556   0.2886751   0.2041241), wk =   0.0041152
        k(  217) = (   0.0555556   0.2886751   0.2721655), wk =   0.0041152
        k(  218) = (   0.0555556   0.2886751   0.3402069), wk =   0.0041152
        k(  219) = (   0.0555556   0.2886751   0.4082483), wk =   0.0041152
        k(  220) = (   0.0555556   0.2886751  -0.7484552), wk =   0.0041152
        k(  221) = (   0.0555556   0.2886751  -0.6804138), wk =   0.0041152
        k(  222) = (   0.0555556   0.2886751  -0.6123724), wk =   0.0041152
        k(  223) = (   0.0555556   0.2886751  -0.5443311), wk =   0.0041152
        k(  224) = (   0.0555556   0.2886751  -0.4762897), wk =   0.0041152
        k(  225) = (   0.0555556   0.2886751  -0.4082483), wk =   0.0041152
        k(  226) = (   0.0555556   0.2886751  -0.3402069), wk =   0.0041152
        k(  227) = (   0.0555556   0.2886751  -0.2721655), wk =   0.0041152
        k(  228) = (   0.0555556   0.2886751  -0.2041241), wk =   0.0041152
        k(  229) = (   0.0555556   0.3528252  -0.1587632), wk =   0.0041152
        k(  230) = (   0.0555556   0.3528252  -0.0907218), wk =   0.0041152
        k(  231) = (   0.0555556   0.3528252  -0.0226805), wk =   0.0041152
        k(  232) = (   0.0555556   0.3528252   0.0453609), wk =   0.0041152
        k(  233) = (   0.0555556   0.3528252   0.1134023), wk =   0.0041152
        k(  234) = (   0.0555556   0.3528252   0.1814437), wk =   0.0041152
        k(  235) = (   0.0555556   0.3528252   0.2494851), wk =   0.0041152
        k(  236) = (   0.0555556   0.3528252   0.3175264), wk =   0.0041152
        k(  237) = (   0.0555556   0.3528252   0.3855678), wk =   0.0041152
        k(  238) = (   0.0555556   0.3528252  -0.7711357), wk =   0.0041152
        k(  239) = (   0.0555556   0.3528252  -0.7030943), wk =   0.0041152
        k(  240) = (   0.0555556   0.3528252  -0.6350529), wk =   0.0041152
        k(  241) = (   0.0555556   0.3528252  -0.5670115), wk =   0.0041152
        k(  242) = (   0.0555556   0.3528252  -0.4989701), wk =   0.0041152
        k(  243) = (   0.0555556   0.3528252  -0.4309288), wk =   0.0041152
        k(  244) = (   0.0555556   0.3528252  -0.3628874), wk =   0.0041152
        k(  245) = (   0.0555556   0.3528252  -0.2948460), wk =   0.0041152
        k(  246) = (   0.0555556   0.3528252  -0.2268046), wk =   0.0041152
        k(  247) = (   0.0555556   0.4169752  -0.1814437), wk =   0.0041152
        k(  248) = (   0.0555556   0.4169752  -0.1134023), wk =   0.0041152
        k(  249) = (   0.0555556   0.4169752  -0.0453609), wk =   0.0041152
        k(  250) = (   0.0555556   0.4169752   0.0226805), wk =   0.0041152
        k(  251) = (   0.0555556   0.4169752   0.0907218), wk =   0.0041152
        k(  252) = (   0.0555556   0.4169752   0.1587632), wk =   0.0041152
        k(  253) = (   0.0555556   0.4169752   0.2268046), wk =   0.0041152
        k(  254) = (   0.0555556   0.4169752   0.2948460), wk =   0.0041152
        k(  255) = (   0.0555556   0.4169752   0.3628874), wk =   0.0041152
        k(  256) = (   0.0555556   0.4169752  -0.7938161), wk =   0.0041152
        k(  257) = (   0.0555556   0.4169752  -0.7257747), wk =   0.0041152
        k(  258) = (   0.0555556   0.4169752  -0.6577334), wk =   0.0041152
        k(  259) = (   0.0555556   0.4169752  -0.5896920), wk =   0.0041152
        k(  260) = (   0.0555556   0.4169752  -0.5216506), wk =   0.0041152
        k(  261) = (   0.0555556   0.4169752  -0.4536092), wk =   0.0041152
        k(  262) = (   0.0555556   0.4169752  -0.3855678), wk =   0.0041152
        k(  263) = (   0.0555556   0.4169752  -0.3175264), wk =   0.0041152
        k(  264) = (   0.0555556   0.4169752  -0.2494851), wk =   0.0041152
        k(  265) = (   0.0555556   0.4811252  -0.2041241), wk =   0.0041152
        k(  266) = (   0.0555556   0.4811252  -0.1360828), wk =   0.0041152
        k(  267) = (   0.0555556   0.4811252  -0.0680414), wk =   0.0041152
        k(  268) = (   0.0555556   0.4811252   0.0000000), wk =   0.0041152
        k(  269) = (   0.0555556   0.4811252   0.0680414), wk =   0.0041152
        k(  270) = (   0.0555556   0.4811252   0.1360828), wk =   0.0041152
        k(  271) = (   0.0555556   0.4811252   0.2041241), wk =   0.0041152
        k(  272) = (   0.0555556   0.4811252   0.2721655), wk =   0.0041152
        k(  273) = (   0.0555556   0.4811252   0.3402069), wk =   0.0041152
        k(  274) = (   0.0555556   0.4811252  -0.8164966), wk =   0.0041152
        k(  275) = (   0.0555556   0.4811252  -0.7484552), wk =   0.0041152
        k(  276) = (   0.0555556   0.4811252  -0.6804138), wk =   0.0041152
        k(  277) = (   0.0555556   0.4811252  -0.6123724), wk =   0.0041152
        k(  278) = (   0.0555556   0.4811252  -0.5443311), wk =   0.0041152
        k(  279) = (   0.0555556   0.4811252  -0.4762897), wk =   0.0041152
        k(  280) = (   0.0555556   0.4811252  -0.4082483), wk =   0.0041152
        k(  281) = (   0.0555556   0.4811252  -0.3402069), wk =   0.0041152
        k(  282) = (   0.0555556   0.4811252  -0.2721655), wk =   0.0041152
        k(  283) = (   0.0555556  -0.6094253   0.1814437), wk =   0.0041152
        k(  284) = (   0.0555556  -0.6094253   0.2494851), wk =   0.0041152
        k(  285) = (   0.0555556  -0.6094253   0.3175264), wk =   0.0041152
        k(  286) = (   0.0555556  -0.6094253   0.3855678), wk =   0.0041152
        k(  287) = (   0.0555556  -0.6094253   0.4536092), wk =   0.0041152
        k(  288) = (   0.0555556  -0.6094253   0.5216506), wk =   0.0041152
        k(  289) = (   0.0555556  -0.6094253   0.5896920), wk =   0.0041152
        k(  290) = (   0.0555556  -0.6094253   0.6577334), wk =   0.0041152
        k(  291) = (   0.0555556  -0.6094253   0.7257747), wk =   0.0041152
        k(  292) = (   0.0555556  -0.6094253  -0.4309288), wk =   0.0041152
        k(  293) = (   0.0555556  -0.6094253  -0.3628874), wk =   0.0041152
        k(  294) = (   0.0555556  -0.6094253  -0.2948460), wk =   0.0041152
        k(  295) = (   0.0555556  -0.6094253  -0.2268046), wk =   0.0041152
        k(  296) = (   0.0555556  -0.6094253  -0.1587632), wk =   0.0041152
        k(  297) = (   0.0555556  -0.6094253  -0.0907218), wk =   0.0041152
        k(  298) = (   0.0555556  -0.6094253  -0.0226805), wk =   0.0041152
        k(  299) = (   0.0555556  -0.6094253   0.0453609), wk =   0.0041152
        k(  300) = (   0.0555556  -0.6094253   0.1134023), wk =   0.0041152
        k(  301) = (   0.1111111   0.1924501  -0.1360828), wk =   0.0041152
        k(  302) = (   0.1111111   0.1924501  -0.0680414), wk =   0.0041152
        k(  303) = (   0.1111111   0.1924501  -0.0000000), wk =   0.0020576
        k(  304) = (   0.1111111   0.1924501   0.2041241), wk =   0.0041152
        k(  305) = (   0.1111111   0.1924501   0.2721655), wk =   0.0041152
        k(  306) = (   0.1111111   0.1924501   0.3402069), wk =   0.0041152
        k(  307) = (   0.1111111   0.1924501   0.4082483), wk =   0.0041152
        k(  308) = (   0.1111111   0.1924501  -0.7484552), wk =   0.0041152
        k(  309) = (   0.1111111   0.1924501  -0.6804138), wk =   0.0041152
        k(  310) = (   0.1111111   0.1924501  -0.6123724), wk =   0.0020576
        k(  311) = (   0.1111111   0.2566001  -0.1587632), wk =   0.0041152
        k(  312) = (   0.1111111   0.2566001  -0.0907218), wk =   0.0041152
        k(  313) = (   0.1111111   0.2566001  -0.0226805), wk =   0.0041152
        k(  314) = (   0.1111111   0.2566001   0.0453609), wk =   0.0041152
        k(  315) = (   0.1111111   0.2566001   0.1134023), wk =   0.0041152
        k(  316) = (   0.1111111   0.2566001   0.1814437), wk =   0.0041152
        k(  317) = (   0.1111111   0.2566001   0.2494851), wk =   0.0041152
        k(  318) = (   0.1111111   0.2566001   0.3175264), wk =   0.0041152
        k(  319) = (   0.1111111   0.2566001   0.3855678), wk =   0.0041152
        k(  320) = (   0.1111111   0.2566001  -0.7711357), wk =   0.0041152
        k(  321) = (   0.1111111   0.2566001  -0.7030943), wk =   0.0041152
        k(  322) = (   0.1111111   0.2566001  -0.6350529), wk =   0.0041152
        k(  323) = (   0.1111111   0.2566001  -0.5670115), wk =   0.0041152
        k(  324) = (   0.1111111   0.2566001  -0.4989701), wk =   0.0041152
        k(  325) = (   0.1111111   0.2566001  -0.4309288), wk =   0.0041152
        k(  326) = (   0.1111111   0.2566001  -0.3628874), wk =   0.0041152
        k(  327) = (   0.1111111   0.2566001  -0.2948460), wk =   0.0041152
        k(  328) = (   0.1111111   0.2566001  -0.2268046), wk =   0.0041152
        k(  329) = (   0.1111111   0.3207501  -0.1814437), wk =   0.0041152
        k(  330) = (   0.1111111   0.3207501  -0.1134023), wk =   0.0041152
        k(  331) = (   0.1111111   0.3207501  -0.0453609), wk =   0.0041152
        k(  332) = (   0.1111111   0.3207501   0.0226805), wk =   0.0041152
        k(  333) = (   0.1111111   0.3207501   0.0907218), wk =   0.0041152
        k(  334) = (   0.1111111   0.3207501   0.1587632), wk =   0.0041152
        k(  335) = (   0.1111111   0.3207501   0.2268046), wk =   0.0041152
        k(  336) = (   0.1111111   0.3207501   0.2948460), wk =   0.0041152
        k(  337) = (   0.1111111   0.3207501   0.3628874), wk =   0.0041152
        k(  338) = (   0.1111111   0.3207501  -0.7938161), wk =   0.0041152
        k(  339) = (   0.1111111   0.3207501  -0.7257747), wk =   0.0041152
        k(  340) = (   0.1111111   0.3207501  -0.6577334), wk =   0.0041152
        k(  341) = (   0.1111111   0.3207501  -0.5896920), wk =   0.0041152
        k(  342) = (   0.1111111   0.3207501  -0.5216506), wk =   0.0041152
        k(  343) = (   0.1111111   0.3207501  -0.4536092), wk =   0.0041152
        k(  344) = (   0.1111111   0.3207501  -0.3855678), wk =   0.0041152
        k(  345) = (   0.1111111   0.3207501  -0.3175264), wk =   0.0041152
        k(  346) = (   0.1111111   0.3207501  -0.2494851), wk =   0.0041152
        k(  347) = (   0.1111111   0.3849002  -0.2041241), wk =   0.0041152
        k(  348) = (   0.1111111   0.3849002  -0.1360828), wk =   0.0041152
        k(  349) = (   0.1111111   0.3849002  -0.0680414), wk =   0.0041152
        k(  350) = (   0.1111111   0.3849002   0.0000000), wk =   0.0041152
        k(  351) = (   0.1111111   0.3849002   0.0680414), wk =   0.0041152
        k(  352) = (   0.1111111   0.3849002   0.1360828), wk =   0.0041152
        k(  353) = (   0.1111111   0.3849002   0.2041241), wk =   0.0041152
        k(  354) = (   0.1111111   0.3849002   0.2721655), wk =   0.0041152
        k(  355) = (   0.1111111   0.3849002   0.3402069), wk =   0.0041152
        k(  356) = (   0.1111111   0.3849002  -0.8164966), wk =   0.0041152
        k(  357) = (   0.1111111   0.3849002  -0.7484552), wk =   0.0041152
        k(  358) = (   0.1111111   0.3849002  -0.6804138), wk =   0.0041152
        k(  359) = (   0.1111111   0.3849002  -0.6123724), wk =   0.0041152
        k(  360) = (   0.1111111   0.3849002  -0.5443311), wk =   0.0041152
        k(  361) = (   0.1111111   0.3849002  -0.4762897), wk =   0.0041152
        k(  362) = (   0.1111111   0.3849002  -0.4082483), wk =   0.0041152
        k(  363) = (   0.1111111   0.3849002  -0.3402069), wk =   0.0041152
        k(  364) = (   0.1111111   0.3849002  -0.2721655), wk =   0.0041152
        k(  365) = (   0.1111111   0.4490502  -0.2268046), wk =   0.0041152
        k(  366) = (   0.1111111   0.4490502  -0.1587632), wk =   0.0041152
        k(  367) = (   0.1111111   0.4490502  -0.0907218), wk =   0.0041152
        k(  368) = (   0.1111111   0.4490502  -0.0226805), wk =   0.0041152
        k(  369) = (   0.1111111   0.4490502   0.0453609), wk =   0.0041152
        k(  370) = (   0.1111111   0.4490502   0.1134023), wk =   0.0041152
        k(  371) = (   0.1111111   0.4490502   0.1814437), wk =   0.0041152
        k(  372) = (   0.1111111   0.4490502   0.2494851), wk =   0.0041152
        k(  373) = (   0.1111111   0.4490502   0.3175264), wk =   0.0041152
        k(  374) = (   0.1111111   0.4490502  -0.8391770), wk =   0.0041152
        k(  375) = (   0.1111111   0.4490502  -0.7711357), wk =   0.0041152
        k(  376) = (   0.1111111   0.4490502  -0.7030943), wk =   0.0041152
        k(  377) = (   0.1111111   0.4490502  -0.6350529), wk =   0.0041152
        k(  378) = (   0.1111111   0.4490502  -0.5670115), wk =   0.0041152
        k(  379) = (   0.1111111   0.4490502  -0.4989701), wk =   0.0041152
        k(  380) = (   0.1111111   0.4490502  -0.4309288), wk =   0.0041152
        k(  381) = (   0.1111111   0.4490502  -0.3628874), wk =   0.0041152
        k(  382) = (   0.1111111   0.4490502  -0.2948460), wk =   0.0041152
        k(  383) = (   0.1111111  -0.6415003   0.1587632), wk =   0.0041152
        k(  384) = (   0.1111111  -0.6415003   0.2268046), wk =   0.0041152
        k(  385) = (   0.1111111  -0.6415003   0.2948460), wk =   0.0041152
        k(  386) = (   0.1111111  -0.6415003   0.3628874), wk =   0.0041152
        k(  387) = (   0.1111111  -0.6415003   0.4309288), wk =   0.0041152
        k(  388) = (   0.1111111  -0.6415003   0.4989701), wk =   0.0041152
        k(  389) = (   0.1111111  -0.6415003   0.5670115), wk =   0.0041152
        k(  390) = (   0.1111111  -0.6415003   0.6350529), wk =   0.0041152
        k(  391) = (   0.1111111  -0.6415003   0.7030943), wk =   0.0041152
        k(  392) = (   0.1111111  -0.6415003  -0.4536092), wk =   0.0041152
        k(  393) = (   0.1111111  -0.6415003  -0.3855678), wk =   0.0041152
        k(  394) = (   0.1111111  -0.6415003  -0.3175264), wk =   0.0041152
        k(  395) = (   0.1111111  -0.6415003  -0.2494851), wk =   0.0041152
        k(  396) = (   0.1111111  -0.6415003  -0.1814437), wk =   0.0041152
        k(  397) = (   0.1111111  -0.6415003  -0.1134023), wk =   0.0041152
        k(  398) = (   0.1111111  -0.6415003  -0.0453609), wk =   0.0041152
        k(  399) = (   0.1111111  -0.6415003   0.0226805), wk =   0.0041152
        k(  400) = (   0.1111111  -0.6415003   0.0907218), wk =   0.0041152
        k(  401) = (   0.1111111  -0.5773503   0.1360828), wk =   0.0041152
        k(  402) = (   0.1111111  -0.5773503   0.2041241), wk =   0.0020576
        k(  403) = (   0.1111111  -0.5773503   0.3402069), wk =   0.0041152
        k(  404) = (   0.1111111  -0.5773503   0.4082483), wk =   0.0041152
        k(  405) = (   0.1111111  -0.5773503   0.4762897), wk =   0.0041152
        k(  406) = (   0.1111111  -0.5773503   0.5443311), wk =   0.0041152
        k(  407) = (   0.1111111  -0.5773503   0.6123724), wk =   0.0041152
        k(  408) = (   0.1111111  -0.5773503   0.6804138), wk =   0.0041152
        k(  409) = (   0.1111111  -0.5773503  -0.4762897), wk =   0.0041152
        k(  410) = (   0.1111111  -0.5773503  -0.4082483), wk =   0.0020576
        k(  411) = (   0.1666667   0.2886751  -0.2041241), wk =   0.0041152
        k(  412) = (   0.1666667   0.2886751  -0.1360828), wk =   0.0041152
        k(  413) = (   0.1666667   0.2886751  -0.0680414), wk =   0.0041152
        k(  414) = (   0.1666667   0.2886751   0.0000000), wk =   0.0020576
        k(  415) = (   0.1666667   0.2886751   0.2721655), wk =   0.0041152
        k(  416) = (   0.1666667   0.2886751   0.3402069), wk =   0.0041152
        k(  417) = (   0.1666667   0.2886751  -0.8164966), wk =   0.0041152
        k(  418) = (   0.1666667   0.2886751  -0.7484552), wk =   0.0041152
        k(  419) = (   0.1666667   0.2886751  -0.6804138), wk =   0.0041152
        k(  420) = (   0.1666667   0.2886751  -0.6123724), wk =   0.0020576
        k(  421) = (   0.1666667   0.3528252  -0.2268046), wk =   0.0041152
        k(  422) = (   0.1666667   0.3528252  -0.1587632), wk =   0.0041152
        k(  423) = (   0.1666667   0.3528252  -0.0907218), wk =   0.0041152
        k(  424) = (   0.1666667   0.3528252  -0.0226805), wk =   0.0041152
        k(  425) = (   0.1666667   0.3528252   0.0453609), wk =   0.0041152
        k(  426) = (   0.1666667   0.3528252   0.1134023), wk =   0.0041152
        k(  427) = (   0.1666667   0.3528252   0.1814437), wk =   0.0041152
        k(  428) = (   0.1666667   0.3528252   0.2494851), wk =   0.0041152
        k(  429) = (   0.1666667   0.3528252   0.3175264), wk =   0.0041152
        k(  430) = (   0.1666667   0.3528252  -0.8391770), wk =   0.0041152
        k(  431) = (   0.1666667   0.3528252  -0.7711357), wk =   0.0041152
        k(  432) = (   0.1666667   0.3528252  -0.7030943), wk =   0.0041152
        k(  433) = (   0.1666667   0.3528252  -0.6350529), wk =   0.0041152
        k(  434) = (   0.1666667   0.3528252  -0.5670115), wk =   0.0041152
        k(  435) = (   0.1666667   0.3528252  -0.4989701), wk =   0.0041152
        k(  436) = (   0.1666667   0.3528252  -0.4309288), wk =   0.0041152
        k(  437) = (   0.1666667   0.3528252  -0.3628874), wk =   0.0041152
        k(  438) = (   0.1666667   0.3528252  -0.2948460), wk =   0.0041152
        k(  439) = (   0.1666667   0.4169752  -0.2494851), wk =   0.0041152
        k(  440) = (   0.1666667   0.4169752  -0.1814437), wk =   0.0041152
        k(  441) = (   0.1666667   0.4169752  -0.1134023), wk =   0.0041152
        k(  442) = (   0.1666667   0.4169752  -0.0453609), wk =   0.0041152
        k(  443) = (   0.1666667   0.4169752   0.0226805), wk =   0.0041152
        k(  444) = (   0.1666667   0.4169752   0.0907218), wk =   0.0041152
        k(  445) = (   0.1666667   0.4169752   0.1587632), wk =   0.0041152
        k(  446) = (   0.1666667   0.4169752   0.2268046), wk =   0.0041152
        k(  447) = (   0.1666667   0.4169752   0.2948460), wk =   0.0041152
        k(  448) = (   0.1666667   0.4169752  -0.8618575), wk =   0.0041152
        k(  449) = (   0.1666667   0.4169752  -0.7938161), wk =   0.0041152
        k(  450) = (   0.1666667   0.4169752  -0.7257747), wk =   0.0041152
        k(  451) = (   0.1666667   0.4169752  -0.6577334), wk =   0.0041152
        k(  452) = (   0.1666667   0.4169752  -0.5896920), wk =   0.0041152
        k(  453) = (   0.1666667   0.4169752  -0.5216506), wk =   0.0041152
        k(  454) = (   0.1666667   0.4169752  -0.4536092), wk =   0.0041152
        k(  455) = (   0.1666667   0.4169752  -0.3855678), wk =   0.0041152
        k(  456) = (   0.1666667   0.4169752  -0.3175264), wk =   0.0041152
        k(  457) = (   0.1666667  -0.6735753   0.1360828), wk =   0.0041152
        k(  458) = (   0.1666667  -0.6735753   0.2041241), wk =   0.0041152
        k(  459) = (   0.1666667  -0.6735753   0.2721655), wk =   0.0041152
        k(  460) = (   0.1666667  -0.6735753   0.3402069), wk =   0.0041152
        k(  461) = (   0.1666667  -0.6735753   0.4082483), wk =   0.0041152
        k(  462) = (   0.1666667  -0.6735753   0.4762897), wk =   0.0041152
        k(  463) = (   0.1666667  -0.6735753   0.5443311), wk =   0.0041152
        k(  464) = (   0.1666667  -0.6735753   0.6123724), wk =   0.0041152
        k(  465) = (   0.1666667  -0.6735753   0.6804138), wk =   0.0041152
        k(  466) = (   0.1666667  -0.6735753  -0.4762897), wk =   0.0041152
        k(  467) = (   0.1666667  -0.6735753  -0.4082483), wk =   0.0041152
        k(  468) = (   0.1666667  -0.6735753  -0.3402069), wk =   0.0041152
        k(  469) = (   0.1666667  -0.6735753  -0.2721655), wk =   0.0041152
        k(  470) = (   0.1666667  -0.6735753  -0.2041241), wk =   0.0041152
        k(  471) = (   0.1666667  -0.6735753  -0.1360828), wk =   0.0041152
        k(  472) = (   0.1666667  -0.6735753  -0.0680414), wk =   0.0041152
        k(  473) = (   0.1666667  -0.6735753  -0.0000000), wk =   0.0041152
        k(  474) = (   0.1666667  -0.6735753   0.0680414), wk =   0.0041152
        k(  475) = (   0.1666667  -0.6094253   0.1134023), wk =   0.0041152
        k(  476) = (   0.1666667  -0.6094253   0.1814437), wk =   0.0041152
        k(  477) = (   0.1666667  -0.6094253   0.2494851), wk =   0.0041152
        k(  478) = (   0.1666667  -0.6094253   0.3175264), wk =   0.0041152
        k(  479) = (   0.1666667  -0.6094253   0.3855678), wk =   0.0041152
        k(  480) = (   0.1666667  -0.6094253   0.4536092), wk =   0.0041152
        k(  481) = (   0.1666667  -0.6094253   0.5216506), wk =   0.0041152
        k(  482) = (   0.1666667  -0.6094253   0.5896920), wk =   0.0041152
        k(  483) = (   0.1666667  -0.6094253   0.6577334), wk =   0.0041152
        k(  484) = (   0.1666667  -0.6094253  -0.4989701), wk =   0.0041152
        k(  485) = (   0.1666667  -0.6094253  -0.4309288), wk =   0.0041152
        k(  486) = (   0.1666667  -0.6094253  -0.3628874), wk =   0.0041152
        k(  487) = (   0.1666667  -0.6094253  -0.2948460), wk =   0.0041152
        k(  488) = (   0.1666667  -0.6094253  -0.2268046), wk =   0.0041152
        k(  489) = (   0.1666667  -0.6094253  -0.1587632), wk =   0.0041152
        k(  490) = (   0.1666667  -0.6094253  -0.0907218), wk =   0.0041152
        k(  491) = (   0.1666667  -0.6094253  -0.0226805), wk =   0.0041152
        k(  492) = (   0.1666667  -0.6094253   0.0453609), wk =   0.0041152
        k(  493) = (   0.2222222   0.3849002  -0.2721655), wk =   0.0041152
        k(  494) = (   0.2222222   0.3849002  -0.2041241), wk =   0.0041152
        k(  495) = (   0.2222222   0.3849002  -0.1360828), wk =   0.0041152
        k(  496) = (   0.2222222   0.3849002  -0.0680414), wk =   0.0041152
        k(  497) = (   0.2222222   0.3849002  -0.0000000), wk =   0.0020576
        k(  498) = (   0.2222222   0.3849002  -0.8845380), wk =   0.0041152
        k(  499) = (   0.2222222   0.3849002  -0.8164966), wk =   0.0041152
        k(  500) = (   0.2222222   0.3849002  -0.7484552), wk =   0.0041152
        k(  501) = (   0.2222222   0.3849002  -0.6804138), wk =   0.0041152
        k(  502) = (   0.2222222   0.3849002  -0.6123724), wk =   0.0020576
        k(  503) = (   0.2222222  -0.7056503   0.1134023), wk =   0.0041152
        k(  504) = (   0.2222222  -0.7056503   0.1814437), wk =   0.0041152
        k(  505) = (   0.2222222  -0.7056503   0.2494851), wk =   0.0041152
        k(  506) = (   0.2222222  -0.7056503   0.3175264), wk =   0.0041152
        k(  507) = (   0.2222222  -0.7056503   0.3855678), wk =   0.0041152
        k(  508) = (   0.2222222  -0.7056503   0.4536092), wk =   0.0041152
        k(  509) = (   0.2222222  -0.7056503   0.5216506), wk =   0.0041152
        k(  510) = (   0.2222222  -0.7056503   0.5896920), wk =   0.0041152
        k(  511) = (   0.2222222  -0.7056503   0.6577334), wk =   0.0041152
        k(  512) = (   0.2222222  -0.7056503  -0.4989701), wk =   0.0041152
        k(  513) = (   0.2222222  -0.7056503  -0.4309288), wk =   0.0041152
        k(  514) = (   0.2222222  -0.7056503  -0.3628874), wk =   0.0041152
        k(  515) = (   0.2222222  -0.7056503  -0.2948460), wk =   0.0041152
        k(  516) = (   0.2222222  -0.7056503  -0.2268046), wk =   0.0041152
        k(  517) = (   0.2222222  -0.7056503  -0.1587632), wk =   0.0041152
        k(  518) = (   0.2222222  -0.7056503  -0.0907218), wk =   0.0041152
        k(  519) = (   0.2222222  -0.7056503  -0.0226805), wk =   0.0041152
        k(  520) = (   0.2222222  -0.7056503   0.0453609), wk =   0.0041152
        k(  521) = (   0.2222222  -0.6415003   0.0907218), wk =   0.0041152
        k(  522) = (   0.2222222  -0.6415003   0.1587632), wk =   0.0041152
        k(  523) = (   0.2222222  -0.6415003   0.2268046), wk =   0.0041152
        k(  524) = (   0.2222222  -0.6415003   0.2948460), wk =   0.0041152
        k(  525) = (   0.2222222  -0.6415003   0.3628874), wk =   0.0041152
        k(  526) = (   0.2222222  -0.6415003   0.4309288), wk =   0.0041152
        k(  527) = (   0.2222222  -0.6415003   0.4989701), wk =   0.0041152
        k(  528) = (   0.2222222  -0.6415003   0.5670115), wk =   0.0041152
        k(  529) = (   0.2222222  -0.6415003   0.6350529), wk =   0.0041152
        k(  530) = (   0.2222222  -0.6415003  -0.5216506), wk =   0.0041152
        k(  531) = (   0.2222222  -0.6415003  -0.4536092), wk =   0.0041152
        k(  532) = (   0.2222222  -0.6415003  -0.3855678), wk =   0.0041152
        k(  533) = (   0.2222222  -0.6415003  -0.3175264), wk =   0.0041152
        k(  534) = (   0.2222222  -0.6415003  -0.2494851), wk =   0.0041152
        k(  535) = (   0.2222222  -0.6415003  -0.1814437), wk =   0.0041152
        k(  536) = (   0.2222222  -0.6415003  -0.1134023), wk =   0.0041152
        k(  537) = (   0.2222222  -0.6415003  -0.0453609), wk =   0.0041152
        k(  538) = (   0.2222222  -0.6415003   0.0226805), wk =   0.0041152
        k(  539) = (   0.2222222  -0.5773503   0.0680414), wk =   0.0041152
        k(  540) = (   0.2222222  -0.5773503   0.1360828), wk =   0.0041152
        k(  541) = (   0.2222222  -0.5773503   0.2041241), wk =   0.0020576
        k(  542) = (   0.2222222  -0.5773503   0.4082483), wk =   0.0041152
        k(  543) = (   0.2222222  -0.5773503   0.4762897), wk =   0.0041152
        k(  544) = (   0.2222222  -0.5773503   0.5443311), wk =   0.0041152
        k(  545) = (   0.2222222  -0.5773503   0.6123724), wk =   0.0041152
        k(  546) = (   0.2222222  -0.5773503  -0.5443311), wk =   0.0041152
        k(  547) = (   0.2222222  -0.5773503  -0.4762897), wk =   0.0041152
        k(  548) = (   0.2222222  -0.5773503  -0.4082483), wk =   0.0020576
        k(  549) = (   0.2777778  -0.6735753   0.0680414), wk =   0.0041152
        k(  550) = (   0.2777778  -0.6735753   0.1360828), wk =   0.0041152
        k(  551) = (   0.2777778  -0.6735753   0.2041241), wk =   0.0041152
        k(  552) = (   0.2777778  -0.6735753   0.2721655), wk =   0.0041152
        k(  553) = (   0.2777778  -0.6735753   0.3402069), wk =   0.0041152
        k(  554) = (   0.2777778  -0.6735753   0.4082483), wk =   0.0020576
        k(  555) = (   0.2777778  -0.6735753  -0.4082483), wk =   0.0041152
        k(  556) = (   0.2777778  -0.6735753  -0.3402069), wk =   0.0041152
        k(  557) = (   0.2777778  -0.6735753  -0.2721655), wk =   0.0041152
        k(  558) = (   0.2777778  -0.6735753  -0.2041241), wk =   0.0020576
        k(  559) = (   0.2777778  -0.6094253   0.0453609), wk =   0.0041152
        k(  560) = (   0.2777778  -0.6094253   0.1134023), wk =   0.0041152
        k(  561) = (   0.2777778  -0.6094253   0.1814437), wk =   0.0041152
        k(  562) = (   0.2777778  -0.6094253   0.2494851), wk =   0.0041152
        k(  563) = (   0.2777778  -0.6094253   0.3175264), wk =   0.0041152
        k(  564) = (   0.2777778  -0.6094253   0.3855678), wk =   0.0041152
        k(  565) = (   0.2777778  -0.6094253   0.4536092), wk =   0.0041152
        k(  566) = (   0.2777778  -0.6094253   0.5216506), wk =   0.0041152
        k(  567) = (   0.2777778  -0.6094253   0.5896920), wk =   0.0041152
        k(  568) = (   0.2777778  -0.6094253  -0.5670115), wk =   0.0041152
        k(  569) = (   0.2777778  -0.6094253  -0.4989701), wk =   0.0041152
        k(  570) = (   0.2777778  -0.6094253  -0.4309288), wk =   0.0041152
        k(  571) = (   0.2777778  -0.6094253  -0.3628874), wk =   0.0041152
        k(  572) = (   0.2777778  -0.6094253  -0.2948460), wk =   0.0041152
        k(  573) = (   0.2777778  -0.6094253  -0.2268046), wk =   0.0041152
        k(  574) = (   0.2777778  -0.6094253  -0.1587632), wk =   0.0041152
        k(  575) = (   0.2777778  -0.6094253  -0.0907218), wk =   0.0041152
        k(  576) = (   0.2777778  -0.6094253  -0.0226805), wk =   0.0041152
        k(  577) = (   0.3333333  -0.5773503  -0.0000000), wk =   0.0020576
        k(  578) = (   0.3333333  -0.5773503   0.0680414), wk =   0.0041152
        k(  579) = (   0.3333333  -0.5773503   0.1360828), wk =   0.0041152
        k(  580) = (   0.3333333  -0.5773503   0.2041241), wk =   0.0020576

                       cryst. coord.
        k(    1) = (   0.0000000   0.0000000   0.0000000), wk =   0.0003429
        k(    2) = (   0.0000000   0.0000000   0.0555556), wk =   0.0006859
        k(    3) = (   0.0000000   0.0000000   0.1111111), wk =   0.0006859
        k(    4) = (   0.0000000   0.0000000   0.1666667), wk =   0.0006859
        k(    5) = (   0.0000000   0.0000000   0.2222222), wk =   0.0006859
        k(    6) = (   0.0000000   0.0000000   0.2777778), wk =   0.0006859
        k(    7) = (   0.0000000   0.0000000   0.3333333), wk =   0.0006859
        k(    8) = (   0.0000000   0.0000000   0.3888889), wk =   0.0006859
        k(    9) = (   0.0000000   0.0000000   0.4444444), wk =   0.0006859
        k(   10) = (   0.0000000   0.0000000  -0.5000000), wk =   0.0003429
        k(   11) = (   0.0000000   0.0555556  -0.0000000), wk =   0.0020576
        k(   12) = (   0.0000000   0.0555556   0.0555556), wk =   0.0020576
        k(   13) = (   0.0000000   0.0555556   0.1111111), wk =   0.0020576
        k(   14) = (   0.0000000   0.0555556   0.1666667), wk =   0.0020576
        k(   15) = (   0.0000000   0.0555556   0.2222222), wk =   0.0020576
        k(   16) = (   0.0000000   0.0555556   0.2777778), wk =   0.0020576
        k(   17) = (   0.0000000   0.0555556   0.3333333), wk =   0.0020576
        k(   18) = (   0.0000000   0.0555556   0.3888889), wk =   0.0020576
        k(   19) = (   0.0000000   0.0555556   0.4444444), wk =   0.0020576
        k(   20) = (   0.0000000   0.0555556  -0.5000000), wk =   0.0020576
        k(   21) = (   0.0000000   0.0555556  -0.4444444), wk =   0.0020576
        k(   22) = (   0.0000000   0.0555556  -0.3888889), wk =   0.0020576
        k(   23) = (   0.0000000   0.0555556  -0.3333333), wk =   0.0020576
        k(   24) = (   0.0000000   0.0555556  -0.2777778), wk =   0.0020576
        k(   25) = (   0.0000000   0.0555556  -0.2222222), wk =   0.0020576
        k(   26) = (   0.0000000   0.0555556  -0.1666667), wk =   0.0020576
        k(   27) = (   0.0000000   0.0555556  -0.1111111), wk =   0.0020576
        k(   28) = (   0.0000000   0.0555556  -0.0555556), wk =   0.0020576
        k(   29) = (   0.0000000   0.1111111  -0.0000000), wk =   0.0020576
        k(   30) = (   0.0000000   0.1111111   0.0555556), wk =   0.0020576
        k(   31) = (   0.0000000   0.1111111   0.1111111), wk =   0.0020576
        k(   32) = (   0.0000000   0.1111111   0.1666667), wk =   0.0020576
        k(   33) = (   0.0000000   0.1111111   0.2222222), wk =   0.0020576
        k(   34) = (   0.0000000   0.1111111   0.2777778), wk =   0.0020576
        k(   35) = (   0.0000000   0.1111111   0.3333333), wk =   0.0020576
        k(   36) = (   0.0000000   0.1111111   0.3888889), wk =   0.0020576
        k(   37) = (   0.0000000   0.1111111   0.4444444), wk =   0.0020576
        k(   38) = (   0.0000000   0.1111111  -0.5000000), wk =   0.0020576
        k(   39) = (   0.0000000   0.1111111  -0.4444444), wk =   0.0020576
        k(   40) = (   0.0000000   0.1111111  -0.3888889), wk =   0.0020576
        k(   41) = (   0.0000000   0.1111111  -0.3333333), wk =   0.0020576
        k(   42) = (   0.0000000   0.1111111  -0.2777778), wk =   0.0020576
        k(   43) = (   0.0000000   0.1111111  -0.2222222), wk =   0.0020576
        k(   44) = (   0.0000000   0.1111111  -0.1666667), wk =   0.0020576
        k(   45) = (   0.0000000   0.1111111  -0.1111111), wk =   0.0020576
        k(   46) = (   0.0000000   0.1111111  -0.0555556), wk =   0.0020576
        k(   47) = (   0.0000000   0.1666667   0.0000000), wk =   0.0020576
        k(   48) = (   0.0000000   0.1666667   0.0555556), wk =   0.0020576
        k(   49) = (   0.0000000   0.1666667   0.1111111), wk =   0.0020576
        k(   50) = (   0.0000000   0.1666667   0.1666667), wk =   0.0020576
        k(   51) = (   0.0000000   0.1666667   0.2222222), wk =   0.0020576
        k(   52) = (   0.0000000   0.1666667   0.2777778), wk =   0.0020576
        k(   53) = (   0.0000000   0.1666667   0.3333333), wk =   0.0020576
        k(   54) = (   0.0000000   0.1666667   0.3888889), wk =   0.0020576
        k(   55) = (   0.0000000   0.1666667   0.4444444), wk =   0.0020576
        k(   56) = (   0.0000000   0.1666667  -0.5000000), wk =   0.0020576
        k(   57) = (   0.0000000   0.1666667  -0.4444444), wk =   0.0020576
        k(   58) = (   0.0000000   0.1666667  -0.3888889), wk =   0.0020576
        k(   59) = (   0.0000000   0.1666667  -0.3333333), wk =   0.0020576
        k(   60) = (   0.0000000   0.1666667  -0.2777778), wk =   0.0020576
        k(   61) = (   0.0000000   0.1666667  -0.2222222), wk =   0.0020576
        k(   62) = (   0.0000000   0.1666667  -0.1666667), wk =   0.0020576
        k(   63) = (   0.0000000   0.1666667  -0.1111111), wk =   0.0020576
        k(   64) = (   0.0000000   0.1666667  -0.0555556), wk =   0.0020576
        k(   65) = (   0.0000000   0.2222222  -0.0000000), wk =   0.0020576
        k(   66) = (   0.0000000   0.2222222   0.0555556), wk =   0.0020576
        k(   67) = (   0.0000000   0.2222222   0.1111111), wk =   0.0020576
        k(   68) = (   0.0000000   0.2222222   0.1666667), wk =   0.0020576
        k(   69) = (   0.0000000   0.2222222   0.2222222), wk =   0.0020576
        k(   70) = (   0.0000000   0.2222222   0.2777778), wk =   0.0020576
        k(   71) = (   0.0000000   0.2222222   0.3333333), wk =   0.0020576
        k(   72) = (   0.0000000   0.2222222   0.3888889), wk =   0.0020576
        k(   73) = (   0.0000000   0.2222222   0.4444444), wk =   0.0020576
        k(   74) = (   0.0000000   0.2222222  -0.5000000), wk =   0.0020576
        k(   75) = (   0.0000000   0.2222222  -0.4444444), wk =   0.0020576
        k(   76) = (   0.0000000   0.2222222  -0.3888889), wk =   0.0020576
        k(   77) = (   0.0000000   0.2222222  -0.3333333), wk =   0.0020576
        k(   78) = (   0.0000000   0.2222222  -0.2777778), wk =   0.0020576
        k(   79) = (   0.0000000   0.2222222  -0.2222222), wk =   0.0020576
        k(   80) = (   0.0000000   0.2222222  -0.1666667), wk =   0.0020576
        k(   81) = (   0.0000000   0.2222222  -0.1111111), wk =   0.0020576
        k(   82) = (   0.0000000   0.2222222  -0.0555556), wk =   0.0020576
        k(   83) = (   0.0000000   0.2777778   0.0000000), wk =   0.0020576
        k(   84) = (   0.0000000   0.2777778   0.0555556), wk =   0.0020576
        k(   85) = (   0.0000000   0.2777778   0.1111111), wk =   0.0020576
        k(   86) = (   0.0000000   0.2777778   0.1666667), wk =   0.0020576
        k(   87) = (   0.0000000   0.2777778   0.2222222), wk =   0.0020576
        k(   88) = (   0.0000000   0.2777778   0.2777778), wk =   0.0020576
        k(   89) = (   0.0000000   0.2777778   0.3333333), wk =   0.0020576
        k(   90) = (   0.0000000   0.2777778   0.3888889), wk =   0.0020576
        k(   91) = (   0.0000000   0.2777778   0.4444444), wk =   0.0020576
        k(   92) = (   0.0000000   0.2777778  -0.5000000), wk =   0.0020576
        k(   93) = (   0.0000000   0.2777778  -0.4444444), wk =   0.0020576
        k(   94) = (   0.0000000   0.2777778  -0.3888889), wk =   0.0020576
        k(   95) = (   0.0000000   0.2777778  -0.3333333), wk =   0.0020576
        k(   96) = (   0.0000000   0.2777778  -0.2777778), wk =   0.0020576
        k(   97) = (   0.0000000   0.2777778  -0.2222222), wk =   0.0020576
        k(   98) = (   0.0000000   0.2777778  -0.1666667), wk =   0.0020576
        k(   99) = (   0.0000000   0.2777778  -0.1111111), wk =   0.0020576
        k(  100) = (   0.0000000   0.2777778  -0.0555556), wk =   0.0020576
        k(  101) = (   0.0000000   0.3333333   0.0000000), wk =   0.0020576
        k(  102) = (   0.0000000   0.3333333   0.0555556), wk =   0.0020576
        k(  103) = (   0.0000000   0.3333333   0.1111111), wk =   0.0020576
        k(  104) = (   0.0000000   0.3333333   0.1666667), wk =   0.0020576
        k(  105) = (   0.0000000   0.3333333   0.2222222), wk =   0.0020576
        k(  106) = (   0.0000000   0.3333333   0.2777778), wk =   0.0020576
        k(  107) = (   0.0000000   0.3333333   0.3333333), wk =   0.0020576
        k(  108) = (   0.0000000   0.3333333   0.3888889), wk =   0.0020576
        k(  109) = (   0.0000000   0.3333333   0.4444444), wk =   0.0020576
        k(  110) = (   0.0000000   0.3333333  -0.5000000), wk =   0.0020576
        k(  111) = (   0.0000000   0.3333333  -0.4444444), wk =   0.0020576
        k(  112) = (   0.0000000   0.3333333  -0.3888889), wk =   0.0020576
        k(  113) = (   0.0000000   0.3333333  -0.3333333), wk =   0.0020576
        k(  114) = (   0.0000000   0.3333333  -0.2777778), wk =   0.0020576
        k(  115) = (   0.0000000   0.3333333  -0.2222222), wk =   0.0020576
        k(  116) = (   0.0000000   0.3333333  -0.1666667), wk =   0.0020576
        k(  117) = (   0.0000000   0.3333333  -0.1111111), wk =   0.0020576
        k(  118) = (   0.0000000   0.3333333  -0.0555556), wk =   0.0020576
        k(  119) = (   0.0000000   0.3888889   0.0000000), wk =   0.0020576
        k(  120) = (   0.0000000   0.3888889   0.0555556), wk =   0.0020576
        k(  121) = (   0.0000000   0.3888889   0.1111111), wk =   0.0020576
        k(  122) = (   0.0000000   0.3888889   0.1666667), wk =   0.0020576
        k(  123) = (   0.0000000   0.3888889   0.2222222), wk =   0.0020576
        k(  124) = (   0.0000000   0.3888889   0.2777778), wk =   0.0020576
        k(  125) = (   0.0000000   0.3888889   0.3333333), wk =   0.0020576
        k(  126) = (   0.0000000   0.3888889   0.3888889), wk =   0.0020576
        k(  127) = (   0.0000000   0.3888889   0.4444444), wk =   0.0020576
        k(  128) = (   0.0000000   0.3888889  -0.5000000), wk =   0.0020576
        k(  129) = (   0.0000000   0.3888889  -0.4444444), wk =   0.0020576
        k(  130) = (   0.0000000   0.3888889  -0.3888889), wk =   0.0020576
        k(  131) = (   0.0000000   0.3888889  -0.3333333), wk =   0.0020576
        k(  132) = (   0.0000000   0.3888889  -0.2777778), wk =   0.0020576
        k(  133) = (   0.0000000   0.3888889  -0.2222222), wk =   0.0020576
        k(  134) = (   0.0000000   0.3888889  -0.1666667), wk =   0.0020576
        k(  135) = (   0.0000000   0.3888889  -0.1111111), wk =   0.0020576
        k(  136) = (   0.0000000   0.3888889  -0.0555556), wk =   0.0020576
        k(  137) = (   0.0000000   0.4444444  -0.0000000), wk =   0.0020576
        k(  138) = (   0.0000000   0.4444444   0.0555556), wk =   0.0020576
        k(  139) = (   0.0000000   0.4444444   0.1111111), wk =   0.0020576
        k(  140) = (   0.0000000   0.4444444   0.1666667), wk =   0.0020576
        k(  141) = (   0.0000000   0.4444444   0.2222222), wk =   0.0020576
        k(  142) = (   0.0000000   0.4444444   0.2777778), wk =   0.0020576
        k(  143) = (   0.0000000   0.4444444   0.3333333), wk =   0.0020576
        k(  144) = (   0.0000000   0.4444444   0.3888889), wk =   0.0020576
        k(  145) = (   0.0000000   0.4444444   0.4444444), wk =   0.0020576
        k(  146) = (   0.0000000   0.4444444  -0.5000000), wk =   0.0020576
        k(  147) = (   0.0000000   0.4444444  -0.4444444), wk =   0.0020576
        k(  148) = (   0.0000000   0.4444444  -0.3888889), wk =   0.0020576
        k(  149) = (   0.0000000   0.4444444  -0.3333333), wk =   0.0020576
        k(  150) = (   0.0000000   0.4444444  -0.2777778), wk =   0.0020576
        k(  151) = (   0.0000000   0.4444444  -0.2222222), wk =   0.0020576
        k(  152) = (   0.0000000   0.4444444  -0.1666667), wk =   0.0020576
        k(  153) = (   0.0000000   0.4444444  -0.1111111), wk =   0.0020576
        k(  154) = (   0.0000000   0.4444444  -0.0555556), wk =   0.0020576
        k(  155) = (   0.0000000  -0.5000000   0.0000000), wk =   0.0010288
        k(  156) = (   0.0000000  -0.5000000   0.0555556), wk =   0.0020576
        k(  157) = (   0.0000000  -0.5000000   0.1111111), wk =   0.0020576
        k(  158) = (   0.0000000  -0.5000000   0.1666667), wk =   0.0020576
        k(  159) = (   0.0000000  -0.5000000   0.2222222), wk =   0.0020576
        k(  160) = (   0.0000000  -0.5000000   0.2777778), wk =   0.0020576
        k(  161) = (   0.0000000  -0.5000000   0.3333333), wk =   0.0020576
        k(  162) = (   0.0000000  -0.5000000   0.3888889), wk =   0.0020576
        k(  163) = (   0.0000000  -0.5000000   0.4444444), wk =   0.0020576
        k(  164) = (   0.0000000  -0.5000000  -0.5000000), wk =   0.0010288
        k(  165) = (   0.0555556   0.1111111  -0.0000000), wk =   0.0041152
        k(  166) = (   0.0555556   0.1111111   0.0555556), wk =   0.0020576
        k(  167) = (   0.0555556   0.1111111   0.1666667), wk =   0.0041152
        k(  168) = (   0.0555556   0.1111111   0.2222222), wk =   0.0041152
        k(  169) = (   0.0555556   0.1111111   0.2777778), wk =   0.0041152
        k(  170) = (   0.0555556   0.1111111   0.3333333), wk =   0.0041152
        k(  171) = (   0.0555556   0.1111111   0.3888889), wk =   0.0041152
        k(  172) = (   0.0555556   0.1111111   0.4444444), wk =   0.0041152
        k(  173) = (   0.0555556   0.1111111  -0.5000000), wk =   0.0041152
        k(  174) = (   0.0555556   0.1111111  -0.4444444), wk =   0.0020576
        k(  175) = (   0.0555556   0.1666667   0.0000000), wk =   0.0041152
        k(  176) = (   0.0555556   0.1666667   0.0555556), wk =   0.0041152
        k(  177) = (   0.0555556   0.1666667   0.1111111), wk =   0.0041152
        k(  178) = (   0.0555556   0.1666667   0.1666667), wk =   0.0041152
        k(  179) = (   0.0555556   0.1666667   0.2222222), wk =   0.0041152
        k(  180) = (   0.0555556   0.1666667   0.2777778), wk =   0.0041152
        k(  181) = (   0.0555556   0.1666667   0.3333333), wk =   0.0041152
        k(  182) = (   0.0555556   0.1666667   0.3888889), wk =   0.0041152
        k(  183) = (   0.0555556   0.1666667   0.4444444), wk =   0.0041152
        k(  184) = (   0.0555556   0.1666667  -0.5000000), wk =   0.0041152
        k(  185) = (   0.0555556   0.1666667  -0.4444444), wk =   0.0041152
        k(  186) = (   0.0555556   0.1666667  -0.3888889), wk =   0.0041152
        k(  187) = (   0.0555556   0.1666667  -0.3333333), wk =   0.0041152
        k(  188) = (   0.0555556   0.1666667  -0.2777778), wk =   0.0041152
        k(  189) = (   0.0555556   0.1666667  -0.2222222), wk =   0.0041152
        k(  190) = (   0.0555556   0.1666667  -0.1666667), wk =   0.0041152
        k(  191) = (   0.0555556   0.1666667  -0.1111111), wk =   0.0041152
        k(  192) = (   0.0555556   0.1666667  -0.0555556), wk =   0.0041152
        k(  193) = (   0.0555556   0.2222222  -0.0000000), wk =   0.0041152
        k(  194) = (   0.0555556   0.2222222   0.0555556), wk =   0.0041152
        k(  195) = (   0.0555556   0.2222222   0.1111111), wk =   0.0041152
        k(  196) = (   0.0555556   0.2222222   0.1666667), wk =   0.0041152
        k(  197) = (   0.0555556   0.2222222   0.2222222), wk =   0.0041152
        k(  198) = (   0.0555556   0.2222222   0.2777778), wk =   0.0041152
        k(  199) = (   0.0555556   0.2222222   0.3333333), wk =   0.0041152
        k(  200) = (   0.0555556   0.2222222   0.3888889), wk =   0.0041152
        k(  201) = (   0.0555556   0.2222222   0.4444444), wk =   0.0041152
        k(  202) = (   0.0555556   0.2222222  -0.5000000), wk =   0.0041152
        k(  203) = (   0.0555556   0.2222222  -0.4444444), wk =   0.0041152
        k(  204) = (   0.0555556   0.2222222  -0.3888889), wk =   0.0041152
        k(  205) = (   0.0555556   0.2222222  -0.3333333), wk =   0.0041152
        k(  206) = (   0.0555556   0.2222222  -0.2777778), wk =   0.0041152
        k(  207) = (   0.0555556   0.2222222  -0.2222222), wk =   0.0041152
        k(  208) = (   0.0555556   0.2222222  -0.1666667), wk =   0.0041152
        k(  209) = (   0.0555556   0.2222222  -0.1111111), wk =   0.0041152
        k(  210) = (   0.0555556   0.2222222  -0.0555556), wk =   0.0041152
        k(  211) = (   0.0555556   0.2777778   0.0000000), wk =   0.0041152
        k(  212) = (   0.0555556   0.2777778   0.0555556), wk =   0.0041152
        k(  213) = (   0.0555556   0.2777778   0.1111111), wk =   0.0041152
        k(  214) = (   0.0555556   0.2777778   0.1666667), wk =   0.0041152
        k(  215) = (   0.0555556   0.2777778   0.2222222), wk =   0.0041152
        k(  216) = (   0.0555556   0.2777778   0.2777778), wk =   0.0041152
        k(  217) = (   0.0555556   0.2777778   0.3333333), wk =   0.0041152
        k(  218) = (   0.0555556   0.2777778   0.3888889), wk =   0.0041152
        k(  219) = (   0.0555556   0.2777778   0.4444444), wk =   0.0041152
        k(  220) = (   0.0555556   0.2777778  -0.5000000), wk =   0.0041152
        k(  221) = (   0.0555556   0.2777778  -0.4444444), wk =   0.0041152
        k(  222) = (   0.0555556   0.2777778  -0.3888889), wk =   0.0041152
        k(  223) = (   0.0555556   0.2777778  -0.3333333), wk =   0.0041152
        k(  224) = (   0.0555556   0.2777778  -0.2777778), wk =   0.0041152
        k(  225) = (   0.0555556   0.2777778  -0.2222222), wk =   0.0041152
        k(  226) = (   0.0555556   0.2777778  -0.1666667), wk =   0.0041152
        k(  227) = (   0.0555556   0.2777778  -0.1111111), wk =   0.0041152
        k(  228) = (   0.0555556   0.2777778  -0.0555556), wk =   0.0041152
        k(  229) = (   0.0555556   0.3333333   0.0000000), wk =   0.0041152
        k(  230) = (   0.0555556   0.3333333   0.0555556), wk =   0.0041152
        k(  231) = (   0.0555556   0.3333333   0.1111111), wk =   0.0041152
        k(  232) = (   0.0555556   0.3333333   0.1666667), wk =   0.0041152
        k(  233) = (   0.0555556   0.3333333   0.2222222), wk =   0.0041152
        k(  234) = (   0.0555556   0.3333333   0.2777778), wk =   0.0041152
        k(  235) = (   0.0555556   0.3333333   0.3333333), wk =   0.0041152
        k(  236) = (   0.0555556   0.3333333   0.3888889), wk =   0.0041152
        k(  237) = (   0.0555556   0.3333333   0.4444444), wk =   0.0041152
        k(  238) = (   0.0555556   0.3333333  -0.5000000), wk =   0.0041152
        k(  239) = (   0.0555556   0.3333333  -0.4444444), wk =   0.0041152
        k(  240) = (   0.0555556   0.3333333  -0.3888889), wk =   0.0041152
        k(  241) = (   0.0555556   0.3333333  -0.3333333), wk =   0.0041152
        k(  242) = (   0.0555556   0.3333333  -0.2777778), wk =   0.0041152
        k(  243) = (   0.0555556   0.3333333  -0.2222222), wk =   0.0041152
        k(  244) = (   0.0555556   0.3333333  -0.1666667), wk =   0.0041152
        k(  245) = (   0.0555556   0.3333333  -0.1111111), wk =   0.0041152
        k(  246) = (   0.0555556   0.3333333  -0.0555556), wk =   0.0041152
        k(  247) = (   0.0555556   0.3888889   0.0000000), wk =   0.0041152
        k(  248) = (   0.0555556   0.3888889   0.0555556), wk =   0.0041152
        k(  249) = (   0.0555556   0.3888889   0.1111111), wk =   0.0041152
        k(  250) = (   0.0555556   0.3888889   0.1666667), wk =   0.0041152
        k(  251) = (   0.0555556   0.3888889   0.2222222), wk =   0.0041152
        k(  252) = (   0.0555556   0.3888889   0.2777778), wk =   0.0041152
        k(  253) = (   0.0555556   0.3888889   0.3333333), wk =   0.0041152
        k(  254) = (   0.0555556   0.3888889   0.3888889), wk =   0.0041152
        k(  255) = (   0.0555556   0.3888889   0.4444444), wk =   0.0041152
        k(  256) = (   0.0555556   0.3888889  -0.5000000), wk =   0.0041152
        k(  257) = (   0.0555556   0.3888889  -0.4444444), wk =   0.0041152
        k(  258) = (   0.0555556   0.3888889  -0.3888889), wk =   0.0041152
        k(  259) = (   0.0555556   0.3888889  -0.3333333), wk =   0.0041152
        k(  260) = (   0.0555556   0.3888889  -0.2777778), wk =   0.0041152
        k(  261) = (   0.0555556   0.3888889  -0.2222222), wk =   0.0041152
        k(  262) = (   0.0555556   0.3888889  -0.1666667), wk =   0.0041152
        k(  263) = (   0.0555556   0.3888889  -0.1111111), wk =   0.0041152
        k(  264) = (   0.0555556   0.3888889  -0.0555556), wk =   0.0041152
        k(  265) = (   0.0555556   0.4444444   0.0000000), wk =   0.0041152
        k(  266) = (   0.0555556   0.4444444   0.0555556), wk =   0.0041152
        k(  267) = (   0.0555556   0.4444444   0.1111111), wk =   0.0041152
        k(  268) = (   0.0555556   0.4444444   0.1666667), wk =   0.0041152
        k(  269) = (   0.0555556   0.4444444   0.2222222), wk =   0.0041152
        k(  270) = (   0.0555556   0.4444444   0.2777778), wk =   0.0041152
        k(  271) = (   0.0555556   0.4444444   0.3333333), wk =   0.0041152
        k(  272) = (   0.0555556   0.4444444   0.3888889), wk =   0.0041152
        k(  273) = (   0.0555556   0.4444444   0.4444444), wk =   0.0041152
        k(  274) = (   0.0555556   0.4444444  -0.5000000), wk =   0.0041152
        k(  275) = (   0.0555556   0.4444444  -0.4444444), wk =   0.0041152
        k(  276) = (   0.0555556   0.4444444  -0.3888889), wk =   0.0041152
        k(  277) = (   0.0555556   0.4444444  -0.3333333), wk =   0.0041152
        k(  278) = (   0.0555556   0.4444444  -0.2777778), wk =   0.0041152
        k(  279) = (   0.0555556   0.4444444  -0.2222222), wk =   0.0041152
        k(  280) = (   0.0555556   0.4444444  -0.1666667), wk =   0.0041152
        k(  281) = (   0.0555556   0.4444444  -0.1111111), wk =   0.0041152
        k(  282) = (   0.0555556   0.4444444  -0.0555556), wk =   0.0041152
        k(  283) = (   0.0555556  -0.5000000   0.0000000), wk =   0.0041152
        k(  284) = (   0.0555556  -0.5000000   0.0555556), wk =   0.0041152
        k(  285) = (   0.0555556  -0.5000000   0.1111111), wk =   0.0041152
        k(  286) = (   0.0555556  -0.5000000   0.1666667), wk =   0.0041152
        k(  287) = (   0.0555556  -0.5000000   0.2222222), wk =   0.0041152
        k(  288) = (   0.0555556  -0.5000000   0.2777778), wk =   0.0041152
        k(  289) = (   0.0555556  -0.5000000   0.3333333), wk =   0.0041152
        k(  290) = (   0.0555556  -0.5000000   0.3888889), wk =   0.0041152
        k(  291) = (   0.0555556  -0.5000000   0.4444444), wk =   0.0041152
        k(  292) = (   0.0555556  -0.5000000  -0.5000000), wk =   0.0041152
        k(  293) = (   0.0555556  -0.5000000  -0.4444444), wk =   0.0041152
        k(  294) = (   0.0555556  -0.5000000  -0.3888889), wk =   0.0041152
        k(  295) = (   0.0555556  -0.5000000  -0.3333333), wk =   0.0041152
        k(  296) = (   0.0555556  -0.5000000  -0.2777778), wk =   0.0041152
        k(  297) = (   0.0555556  -0.5000000  -0.2222222), wk =   0.0041152
        k(  298) = (   0.0555556  -0.5000000  -0.1666667), wk =   0.0041152
        k(  299) = (   0.0555556  -0.5000000  -0.1111111), wk =   0.0041152
        k(  300) = (   0.0555556  -0.5000000  -0.0555556), wk =   0.0041152
        k(  301) = (   0.1111111   0.2222222  -0.0000000), wk =   0.0041152
        k(  302) = (   0.1111111   0.2222222   0.0555556), wk =   0.0041152
        k(  303) = (   0.1111111   0.2222222   0.1111111), wk =   0.0020576
        k(  304) = (   0.1111111   0.2222222   0.2777778), wk =   0.0041152
        k(  305) = (   0.1111111   0.2222222   0.3333333), wk =   0.0041152
        k(  306) = (   0.1111111   0.2222222   0.3888889), wk =   0.0041152
        k(  307) = (   0.1111111   0.2222222   0.4444444), wk =   0.0041152
        k(  308) = (   0.1111111   0.2222222  -0.5000000), wk =   0.0041152
        k(  309) = (   0.1111111   0.2222222  -0.4444444), wk =   0.0041152
        k(  310) = (   0.1111111   0.2222222  -0.3888889), wk =   0.0020576
        k(  311) = (   0.1111111   0.2777778  -0.0000000), wk =   0.0041152
        k(  312) = (   0.1111111   0.2777778   0.0555556), wk =   0.0041152
        k(  313) = (   0.1111111   0.2777778   0.1111111), wk =   0.0041152
        k(  314) = (   0.1111111   0.2777778   0.1666667), wk =   0.0041152
        k(  315) = (   0.1111111   0.2777778   0.2222222), wk =   0.0041152
        k(  316) = (   0.1111111   0.2777778   0.2777778), wk =   0.0041152
        k(  317) = (   0.1111111   0.2777778   0.3333333), wk =   0.0041152
        k(  318) = (   0.1111111   0.2777778   0.3888889), wk =   0.0041152
        k(  319) = (   0.1111111   0.2777778   0.4444444), wk =   0.0041152
        k(  320) = (   0.1111111   0.2777778  -0.5000000), wk =   0.0041152
        k(  321) = (   0.1111111   0.2777778  -0.4444444), wk =   0.0041152
        k(  322) = (   0.1111111   0.2777778  -0.3888889), wk =   0.0041152
        k(  323) = (   0.1111111   0.2777778  -0.3333333), wk =   0.0041152
        k(  324) = (   0.1111111   0.2777778  -0.2777778), wk =   0.0041152
        k(  325) = (   0.1111111   0.2777778  -0.2222222), wk =   0.0041152
        k(  326) = (   0.1111111   0.2777778  -0.1666667), wk =   0.0041152
        k(  327) = (   0.1111111   0.2777778  -0.1111111), wk =   0.0041152
        k(  328) = (   0.1111111   0.2777778  -0.0555556), wk =   0.0041152
        k(  329) = (   0.1111111   0.3333333   0.0000000), wk =   0.0041152
        k(  330) = (   0.1111111   0.3333333   0.0555556), wk =   0.0041152
        k(  331) = (   0.1111111   0.3333333   0.1111111), wk =   0.0041152
        k(  332) = (   0.1111111   0.3333333   0.1666667), wk =   0.0041152
        k(  333) = (   0.1111111   0.3333333   0.2222222), wk =   0.0041152
        k(  334) = (   0.1111111   0.3333333   0.2777778), wk =   0.0041152
        k(  335) = (   0.1111111   0.3333333   0.3333333), wk =   0.0041152
        k(  336) = (   0.1111111   0.3333333   0.3888889), wk =   0.0041152
        k(  337) = (   0.1111111   0.3333333   0.4444444), wk =   0.0041152
        k(  338) = (   0.1111111   0.3333333  -0.5000000), wk =   0.0041152
        k(  339) = (   0.1111111   0.3333333  -0.4444444), wk =   0.0041152
        k(  340) = (   0.1111111   0.3333333  -0.3888889), wk =   0.0041152
        k(  341) = (   0.1111111   0.3333333  -0.3333333), wk =   0.0041152
        k(  342) = (   0.1111111   0.3333333  -0.2777778), wk =   0.0041152
        k(  343) = (   0.1111111   0.3333333  -0.2222222), wk =   0.0041152
        k(  344) = (   0.1111111   0.3333333  -0.1666667), wk =   0.0041152
        k(  345) = (   0.1111111   0.3333333  -0.1111111), wk =   0.0041152
        k(  346) = (   0.1111111   0.3333333  -0.0555556), wk =   0.0041152
        k(  347) = (   0.1111111   0.3888889   0.0000000), wk =   0.0041152
        k(  348) = (   0.1111111   0.3888889   0.0555556), wk =   0.0041152
        k(  349) = (   0.1111111   0.3888889   0.1111111), wk =   0.0041152
        k(  350) = (   0.1111111   0.3888889   0.1666667), wk =   0.0041152
        k(  351) = (   0.1111111   0.3888889   0.2222222), wk =   0.0041152
[...]

     occupation numbers 
     1.0000   1.0000   1.0000   1.0000   1.0000   1.0000   1.0000   1.0000
     0.8370   0.0001   0.0000   0.0000   0.0000   0.0000   0.0000   0.0000
     0.0000   0.0000   0.0000   0.0000   0.0000   0.0000   0.0000   0.0000

          k = 0.2778-0.6736 0.0680 (  2545 PWs)   bands (ev):

   -33.6751 -12.7299 -12.4269 -12.2148   7.7154  13.0828  14.3090  14.7255
    18.5929  20.8254  21.7533  24.5557  24.9988  29.3732  31.8007  32.7799
    35.0101  39.8343  40.2805  44.0078  46.3433  46.7036  49.3728  51.0253

     occupation numbers 
     1.0000   1.0000   1.0000   1.0000   1.0000   1.0000   1.0000   1.0000
     0.4277   0.0002   0.0000   0.0000   0.0000   0.0000   0.0000   0.0000
     0.0000   0.0000   0.0000   0.0000   0.0000   0.0000   0.0000   0.0000

          k = 0.2778-0.6736 0.1361 (  2540 PWs)   bands (ev):

   -33.6805 -12.7468 -12.3760 -12.2100   7.8212  12.9160  14.2167  14.5986
    18.6947  20.8166  21.7484  24.4401  25.3815  29.0488  32.0235  32.8430
    34.5296  39.8225  41.1095  43.7558  45.8662  46.6236  48.6242  50.8424

     occupation numbers 
     1.0000   1.0000   1.0000   1.0000   1.0000   1.0000   1.0000   1.0000
     0.3395   0.0002   0.0000   0.0000   0.0000   0.0000   0.0000   0.0000
     0.0000   0.0000   0.0000   0.0000   0.0000   0.0000   0.0000   0.0000

          k = 0.2778-0.6736 0.2041 (  2540 PWs)   bands (ev):

   -33.6856 -12.7421 -12.3578 -12.1973   7.9423  12.7430  14.1517  14.4183
    18.9763  20.7214  21.7005  24.1557  25.8215  28.8872  32.3643  32.4653
    34.6457  39.5272  41.5459  43.7865  45.6523  46.8030  47.7717  49.8011

     occupation numbers 
     1.0000   1.0000   1.0000   1.0000   1.0000   1.0000   1.0000   1.0000
     0.1544   0.0003   0.0000   0.0000   0.0000   0.0000   0.0000   0.0000
     0.0000   0.0000   0.0000   0.0000   0.0000   0.0000   0.0000   0.0000

          k = 0.2778-0.6736 0.2722 (  2536 PWs)   bands (ev):

   -33.6897 -12.7193 -12.3822 -12.1675   8.0584  12.5779  14.0861  14.2919
    19.3085  20.6176  21.6168  23.7928  26.3125  28.7841  31.7689  32.8440
    35.1972  38.9599  41.6704  43.8724  45.8344  46.8469  47.4136  48.8116

     occupation numbers 
     1.0000   1.0000   1.0000   1.0000   1.0000   1.0000   1.0000   1.0000
     0.0511   0.0004   0.0000   0.0000   0.0000   0.0000   0.0000   0.0000
     0.0000   0.0000   0.0000   0.0000   0.0000   0.0000   0.0000   0.0000

          k = 0.2778-0.6736 0.3402 (  2541 PWs)   bands (ev):

   -33.6924 -12.6888 -12.4216 -12.1404   8.1436  12.4576  13.9842  14.2808
    19.5428  20.5686  21.5773  23.4517  26.7639  28.6830  31.2336  33.1781
    35.9121  38.2553  41.7185  43.7468  46.2498  46.4819  47.7114  48.2186

     occupation numbers 
     1.0000   1.0000   1.0000   1.0000   1.0000   1.0000   1.0000   1.0000
     0.0223   0.0005   0.0000   0.0000   0.0000   0.0000   0.0000   0.0000
     0.0000   0.0000   0.0000   0.0000   0.0000   0.0000   0.0000   0.0000

          k = 0.2778-0.6736 0.4082 (  2546 PWs)   bands (ev):

   -33.6933 -12.6729 -12.4416 -12.1300   8.1751  12.4137  13.9386  14.2903
    19.6149  20.5644  21.5847  23.2986  26.9677  28.6234  31.0255  33.3024
    36.3669  37.8084  41.7442  43.6381  46.3461  46.5279  47.5623  48.2698

     occupation numbers 
     1.0000   1.0000   1.0000   1.0000   1.0000   1.0000   1.0000   1.0000
     0.0172   0.0005   0.0000   0.0000   0.0000   0.0000   0.0000   0.0000
     0.0000   0.0000   0.0000   0.0000   0.0000   0.0000   0.0000   0.0000

          k = 0.2778-0.6736-0.4082 (  2551 PWs)   bands (ev):

   -33.6700 -12.6932 -12.4842 -12.2315   7.6358  13.2597  14.3841  14.7430
    18.7368  20.7230  21.7574  24.4461  24.6550  29.9402  31.7259  32.5577
    35.7038  39.3011  39.6707  44.1108  46.6820  47.3554  49.6162  50.4717

     occupation numbers 
     1.0000   1.0000   1.0000   1.0000   1.0000   1.0000   1.0000   1.0000
     0.3057   0.0003   0.0000   0.0000   0.0000   0.0000   0.0000   0.0000
     0.0000   0.0000   0.0000   0.0000   0.0000   0.0000   0.0000   0.0000

          k = 0.2778-0.6736-0.3402 (  2546 PWs)   bands (ev):

   -33.6659 -12.6436 -12.5325 -12.2641   7.5841  13.4649  14.4076  14.6478
    19.1000  20.5605  21.7385  24.2050  24.3380  30.6858  31.7016  32.4324
    36.2098  38.5290  39.4356  43.7018  47.0612  48.0302  49.6230  50.4309

     occupation numbers 
     1.0000   1.0000   1.0000   1.0000   1.0000   1.0000   1.0000   1.0000
     0.1038   0.0005   0.0000   0.0000   0.0000   0.0000   0.0000   0.0000
     0.0000   0.0000   0.0000   0.0000   0.0000   0.0000   0.0000   0.0000

          k = 0.2778-0.6736-0.2722 (  2536 PWs)   bands (ev):

   -33.6632 -12.5988 -12.5592 -12.3029   7.5564  13.6851  14.3810  14.4952
    19.5773  20.3511  21.6721  24.0005  24.0863  31.3163  31.7120  32.4875
    36.1013  38.4586  39.1732  43.0984  47.2683  48.3527  49.9723  50.3158

     occupation numbers 
     1.0000   1.0000   1.0000   1.0000   1.0000   1.0000   1.0000   1.0000
     0.0197   0.0012   0.0000   0.0000   0.0000   0.0000   0.0000   0.0000
     0.0000   0.0000   0.0000   0.0000   0.0000   0.0000   0.0000   0.0000

          k = 0.2778-0.6736-0.2041 (  2534 PWs)   bands (ev):

   -33.6622 -12.5902 -12.5553 -12.3228   7.5480  13.8117  14.3196  14.4355
    20.0206  20.0377  21.6270  23.9293  23.9843  31.4549  31.8174  32.5906
    35.8586  38.7702  38.9016  42.8118  47.3227  48.4154  50.0709  50.3699

     occupation numbers 
     1.0000   1.0000   1.0000   1.0000   1.0000   1.0000   1.0000   1.0000
     0.0039   0.0037   0.0000   0.0000   0.0000   0.0000   0.0000   0.0000
     0.0000   0.0000   0.0000   0.0000   0.0000   0.0000   0.0000   0.0000

          k = 0.2778-0.6094 0.0454 (  2547 PWs)   bands (ev):

   -33.6755 -12.7061 -12.4745 -12.1907   7.9158  12.8118  14.3054  14.3788
    19.2620  20.4586  21.7133  24.4259  25.5508  29.3591  31.5345  32.6782
    35.4437  39.1899  40.3199  44.4723  46.2295  46.6320  49.2522  50.4181

     occupation numbers 
     1.0000   1.0000   1.0000   1.0000   1.0000   1.0000   1.0000   1.0000
     0.0601   0.0008   0.0000   0.0000   0.0000   0.0000   0.0000   0.0000
     0.0000   0.0000   0.0000   0.0000   0.0000   0.0000   0.0000   0.0000

          k = 0.2778-0.6094 0.1134 (  2543 PWs)   bands (ev):

   -33.6782 -12.7429 -12.4152 -12.1933   7.9879  12.7032  14.2267  14.3207
    19.3251  20.4617  21.6810  24.8271  25.4376  28.9253  31.9520  32.7198
    34.7266  40.0447  40.3614  44.1684  45.8009  46.6670  48.7279  51.0222

     occupation numbers 
     1.0000   1.0000   1.0000   1.0000   1.0000   1.0000   1.0000   1.0000
     0.0482   0.0008   0.0000   0.0000   0.0000   0.0000   0.0000   0.0000
     0.0000   0.0000   0.0000   0.0000   0.0000   0.0000   0.0000   0.0000

          k = 0.2778-0.6094 0.1814 (  2545 PWs)   bands (ev):

   -33.6804 -12.7576 -12.3788 -12.1991   8.0508  12.6185  14.1612  14.2615
    19.5225  20.3305  21.6842  24.9328  25.4529  28.7336  32.2353  32.7588
    34.3220  40.2000  40.6287  44.0222  45.5016  47.0988  47.8668  50.9660

     occupation numbers 
     1.0000   1.0000   1.0000   1.0000   1.0000   1.0000   1.0000   1.0000
     0.0239   0.0013   0.0000   0.0000   0.0000   0.0000   0.0000   0.0000
     0.0000   0.0000   0.0000   0.0000   0.0000   0.0000   0.0000   0.0000

          k = 0.2778-0.6094 0.2495 (  2540 PWs)   bands (ev):

   -33.6818 -12.7487 -12.3889 -12.1881   8.0944  12.5568  14.1282  14.2286
    19.7754  20.1610  21.6478  24.5756  25.8588  28.7192  31.9896  32.8657
    34.5594  39.7533  40.8731  44.2153  45.4771  47.0475  47.7494  50.1036

     occupation numbers 
     1.0000   1.0000   1.0000   1.0000   1.0000   1.0000   1.0000   1.0000
     0.0096   0.0023   0.0000   0.0000   0.0000   0.0000   0.0000   0.0000
     0.0000   0.0000   0.0000   0.0000   0.0000   0.0000   0.0000   0.0000

          k = 0.2778-0.6094 0.3175 (  2546 PWs)   bands (ev):

   -33.6824 -12.7191 -12.4350 -12.1688   8.1083  12.5334  14.1068  14.2512
    19.9474  20.0540  21.6217  24.1552  26.2413  28.8670  31.4531  32.9886
    35.2318  39.0437  40.9241  44.5193  45.7312  46.5362  48.3300  49.3021

     occupation numbers 
     1.0000   1.0000   1.0000   1.0000   1.0000   1.0000   1.0000   1.0000
     0.0051   0.0035   0.0000   0.0000   0.0000   0.0000   0.0000   0.0000
     0.0000   0.0000   0.0000   0.0000   0.0000   0.0000   0.0000   0.0000

          k = 0.2778-0.6094 0.3856 (  2545 PWs)   bands (ev):

   -33.6819 -12.6789 -12.4871 -12.1613   8.0856  12.5679  14.1148  14.2893
    19.9648  20.0312  21.6879  23.7830  26.4011  29.1978  31.0095  33.0399
    36.0069  38.2255  40.9012  44.6441  46.2242  46.4393  48.1227  49.1283

     occupation numbers 
     1.0000   1.0000   1.0000   1.0000   1.0000   1.0000   1.0000   1.0000
     0.0048   0.0038   0.0000   0.0000   0.0000   0.0000   0.0000   0.0000
     0.0000   0.0000   0.0000   0.0000   0.0000   0.0000   0.0000   0.0000

          k = 0.2778-0.6094 0.4536 (  2539 PWs)   bands (ev):

   -33.6805 -12.6561 -12.5090 -12.1728   8.0257  12.6710  14.1678  14.2995
    19.9253  20.0343  21.7537  23.5957  26.2564  29.5566  30.9311  32.9928
    36.3927  37.7782  40.8298  44.6217  46.5562  46.7280  47.6871  49.0237

     occupation numbers 
     1.0000   1.0000   1.0000   1.0000   1.0000   1.0000   1.0000   1.0000
     0.0056   0.0037   0.0000   0.0000   0.0000   0.0000   0.0000   0.0000
     0.0000   0.0000   0.0000   0.0000   0.0000   0.0000   0.0000   0.0000

          k = 0.2778-0.6094 0.5217 (  2541 PWs)   bands (ev):

   -33.6783 -12.6730 -12.4796 -12.2007   7.9354  12.8353  14.2414  14.3017
    19.7242  20.1906  21.7288  23.6721  25.8932  29.6666  31.3933  32.8380
    35.8653  38.2718  40.6939  44.4463  46.4838  47.0564  47.8676  48.8971

     occupation numbers 
     1.0000   1.0000   1.0000   1.0000   1.0000   1.0000   1.0000   1.0000
     0.0116   0.0021   0.0000   0.0000   0.0000   0.0000   0.0000   0.0000
     0.0000   0.0000   0.0000   0.0000   0.0000   0.0000   0.0000   0.0000

          k = 0.2778-0.6094 0.5897 (  2534 PWs)   bands (ev):

   -33.6756 -12.6965 -12.4437 -12.2313   7.8284  13.0239  14.2427  14.4202
    19.4146  20.4024  21.6955  23.9165  25.4469  29.6711  32.0434  32.5780
    35.2942  38.9362  40.4485  44.1241  46.3059  47.6868  47.8139  49.4949

     occupation numbers 
     1.0000   1.0000   1.0000   1.0000   1.0000   1.0000   1.0000   1.0000
     0.0352   0.0010   0.0000   0.0000   0.0000   0.0000   0.0000   0.0000
     0.0000   0.0000   0.0000   0.0000   0.0000   0.0000   0.0000   0.0000

          k = 0.2778-0.6094-0.5670 (  2541 PWs)   bands (ev):

   -33.6727 -12.7049 -12.4445 -12.2413   7.7226  13.1747  14.2882  14.5804
    19.0469  20.6060  21.7052  24.2070  25.0172  29.7372  32.1658  32.4996
    35.2082  39.4235  40.0052  43.9534  46.3627  47.4913  48.7149  50.2911

     occupation numbers 
     1.0000   1.0000   1.0000   1.0000   1.0000   1.0000   1.0000   1.0000
     0.1235   0.0005   0.0000   0.0000   0.0000   0.0000   0.0000   0.0000
     0.0000   0.0000   0.0000   0.0000   0.0000   0.0000   0.0000   0.0000

          k = 0.2778-0.6094-0.4990 (  2551 PWs)   bands (ev):

   -33.6700 -12.6932 -12.4842 -12.2315   7.6358  13.2597  14.3841  14.7430
    18.7368  20.7230  21.7574  24.4461  24.6550  29.9402  31.7259  32.5577
    35.7038  39.3011  39.6707  44.1108  46.6820  47.3554  49.6162  50.4717

     occupation numbers 
     1.0000   1.0000   1.0000   1.0000   1.0000   1.0000   1.0000   1.0000
     0.3057   0.0003   0.0000   0.0000   0.0000   0.0000   0.0000   0.0000
     0.0000   0.0000   0.0000   0.0000   0.0000   0.0000   0.0000   0.0000

          k = 0.2778-0.6094-0.4309 (  2553 PWs)   bands (ev):

   -33.6678 -12.6648 -12.5328 -12.2268   7.5813  13.3177  14.4581  14.8394
    18.6123  20.7314  21.8237  24.3638  24.5656  30.3258  31.3113  32.5003
    36.4344  38.4792  39.7077  44.3150  47.0573  47.4509  49.7257  50.3690

     occupation numbers 
     1.0000   1.0000   1.0000   1.0000   1.0000   1.0000   1.0000   1.0000
     0.4103   0.0003   0.0000   0.0000   0.0000   0.0000   0.0000   0.0000
     0.0000   0.0000   0.0000   0.0000   0.0000   0.0000   0.0000   0.0000

          k = 0.2778-0.6094-0.3629 (  2554 PWs)   bands (ev):

   -33.6664 -12.6388 -12.5577 -12.2388   7.5648  13.3882  14.4686  14.7933
    18.7494  20.6772  21.8224  24.2269  24.4872  30.7484  31.1577  32.4551
    36.7947  38.0227  39.6253  44.1413  47.1467  47.7960  49.5276  50.8606

     occupation numbers 
     1.0000   1.0000   1.0000   1.0000   1.0000   1.0000   1.0000   1.0000
     0.2960   0.0004   0.0000   0.0000   0.0000   0.0000   0.0000   0.0000
     0.0000   0.0000   0.0000   0.0000   0.0000   0.0000   0.0000   0.0000

          k = 0.2778-0.6094-0.2948 (  2546 PWs)   bands (ev):

   -33.6659 -12.6436 -12.5325 -12.2641   7.5841  13.4649  14.4076  14.6478
    19.1000  20.5605  21.7385  24.2050  24.3380  30.6858  31.7016  32.4324
    36.2098  38.5290  39.4356  43.7018  47.0612  48.0302  49.6230  50.4309

     occupation numbers 
     1.0000   1.0000   1.0000   1.0000   1.0000   1.0000   1.0000   1.0000
     0.1038   0.0005   0.0000   0.0000   0.0000   0.0000   0.0000   0.0000
     0.0000   0.0000   0.0000   0.0000   0.0000   0.0000   0.0000   0.0000

          k = 0.2778-0.6094-0.2268 (  2535 PWs)   bands (ev):

   -33.6664 -12.6479 -12.5070 -12.2830   7.6309  13.4777  14.3112  14.5329
    19.5276  20.3232  21.6769  24.0094  24.4954  30.6279  32.0581  32.4945
    35.7036  38.9888  39.2344  43.4683  46.9914  48.1369  49.2070  50.1898

     occupation numbers 
     1.0000   1.0000   1.0000   1.0000   1.0000   1.0000   1.0000   1.0000
     0.0235   0.0013   0.0000   0.0000   0.0000   0.0000   0.0000   0.0000
     0.0000   0.0000   0.0000   0.0000   0.0000   0.0000   0.0000   0.0000

          k = 0.2778-0.6094-0.1588 (  2536 PWs)   bands (ev):

   -33.6678 -12.6347 -12.5242 -12.2696   7.6947  13.3498  14.3002  14.4727
    19.8972  19.9768  21.7106  23.8496  24.8038  30.6711  31.7024  32.6476
    35.8290  38.4946  39.6341  43.6861  46.9751  47.9289  48.9982  49.8083

     occupation numbers 
     1.0000   1.0000   1.0000   1.0000   1.0000   1.0000   1.0000   1.0000
     0.0062   0.0046   0.0000   0.0000   0.0000   0.0000   0.0000   0.0000
     0.0000   0.0000   0.0000   0.0000   0.0000   0.0000   0.0000   0.0000

          k = 0.2778-0.6094-0.0907 (  2537 PWs)   bands (ev):

   -33.6700 -12.6143 -12.5635 -12.2349   7.7664  13.1466  14.3407  14.4465
    19.6237  20.1531  21.7821  23.8498  25.1552  30.7002  31.0810  32.6723
    36.3043  38.0098  39.9429  44.1656  46.8735  47.5350  48.9489  49.7269

     occupation numbers 
     1.0000   1.0000   1.0000   1.0000   1.0000   1.0000   1.0000   1.0000
     0.0166   0.0024   0.0000   0.0000   0.0000   0.0000   0.0000   0.0000
     0.0000   0.0000   0.0000   0.0000   0.0000   0.0000   0.0000   0.0000

          k = 0.2778-0.6094-0.0227 (  2543 PWs)   bands (ev):

   -33.6727 -12.6538 -12.5343 -12.2046   7.8409  12.9578  14.3461  14.4265
    19.3656  20.3339  21.7811  24.0608  25.4432  30.0380  31.1799  32.6663
    36.1450  38.3147  40.1683  44.5139  46.5999  47.0477  49.0881  50.0292

     occupation numbers 
     1.0000   1.0000   1.0000   1.0000   1.0000   1.0000   1.0000   1.0000
     0.0418   0.0012   0.0000   0.0000   0.0000   0.0000   0.0000   0.0000
     0.0000   0.0000   0.0000   0.0000   0.0000   0.0000   0.0000   0.0000

          k = 0.3333-0.5774-0.0000 (  2556 PWs)   bands (ev):

   -33.6727 -12.6163 -12.5808 -12.1955   7.8395  12.9427  14.3714  14.4379
    19.2792  20.3746  21.8308  23.9516  25.5624  30.3479  30.7090  32.6636
    36.6944  37.7783  40.2132  44.6954  46.7746  46.8990  49.0320  50.1493

     occupation numbers 
     1.0000   1.0000   1.0000   1.0000   1.0000   1.0000   1.0000   1.0000
     0.0566   0.0011   0.0000   0.0000   0.0000   0.0000   0.0000   0.0000
     0.0000   0.0000   0.0000   0.0000   0.0000   0.0000   0.0000   0.0000

          k = 0.3333-0.5774 0.0680 (  2543 PWs)   bands (ev):

   -33.6727 -12.6538 -12.5343 -12.2046   7.8409  12.9578  14.3461  14.4265
    19.3656  20.3339  21.7811  24.0608  25.4432  30.0380  31.1799  32.6663
    36.1450  38.3147  40.1683  44.5139  46.5999  47.0477  49.0881  50.0292

     occupation numbers 
     1.0000   1.0000   1.0000   1.0000   1.0000   1.0000   1.0000   1.0000
     0.0418   0.0012   0.0000   0.0000   0.0000   0.0000   0.0000   0.0000
     0.0000   0.0000   0.0000   0.0000   0.0000   0.0000   0.0000   0.0000

          k = 0.3333-0.5774 0.1361 (  2544 PWs)   bands (ev):

   -33.6727 -12.6873 -12.4795 -12.2259   7.8439  12.9899  14.2853  14.4124
    19.5959  20.1810  21.7073  24.3270  25.1469  29.7862  31.8017  32.6765
    35.3899  39.0679  40.0112  44.1482  46.3987  47.3682  48.7606  50.2173

     occupation numbers 
     1.0000   1.0000   1.0000   1.0000   1.0000   1.0000   1.0000   1.0000
     0.0184   0.0022   0.0000   0.0000   0.0000   0.0000   0.0000   0.0000
     0.0000   0.0000   0.0000   0.0000   0.0000   0.0000   0.0000   0.0000

          k = 0.3333-0.5774 0.2041 (  2542 PWs)   bands (ev):

   -33.6727 -12.6992 -12.4547 -12.2389   7.8453  13.0070  14.2523  14.4072
    19.8518  19.9561  21.6828  24.5628  24.8918  29.7047  32.1044  32.6905
    35.0310  39.5845  39.7350  43.9643  46.3194  47.7076  48.3222  50.4797

     occupation numbers 
     1.0000   1.0000   1.0000   1.0000   1.0000   1.0000   1.0000   1.0000
     0.0073   0.0050   0.0000   0.0000   0.0000   0.0000   0.0000   0.0000
     0.0000   0.0000   0.0000   0.0000   0.0000   0.0000   0.0000   0.0000

     the Fermi energy is    18.5136 ev

     Writing output data file pwscf.save
 
     init_run     :      0.06s CPU      0.14s WALL (       1 calls)
     electrons    :     30.72s CPU     31.72s WALL (       1 calls)

     Called by init_run:
     wfcinit      :      0.00s CPU      0.04s WALL (       1 calls)
     wfcinit:atom :      0.10s CPU      0.11s WALL (     580 calls)
     wfcinit:wfcr :      2.44s CPU      2.53s WALL (     580 calls)
     potinit      :      0.00s CPU      0.03s WALL (       1 calls)

     Called by electrons:
     c_bands      :     30.70s CPU     31.70s WALL (       1 calls)
     v_of_rho     :      0.00s CPU      0.00s WALL (       1 calls)
     v_h          :      0.00s CPU      0.00s WALL (       1 calls)
     v_xc         :      0.00s CPU      0.00s WALL (       1 calls)

     Called by c_bands:
     init_us_2    :      0.15s CPU      0.12s WALL (     580 calls)
     cegterg      :     27.40s CPU     27.83s WALL (     608 calls)

     Called by sum_band:

     Called by *egterg:
     h_psi        :     16.64s CPU     17.18s WALL (    8775 calls)
     g_psi        :      0.21s CPU      0.21s WALL (    7587 calls)
     cdiaghg      :      9.75s CPU      9.62s WALL (    8167 calls)
     cegterg:over :      1.30s CPU      1.44s WALL (    7587 calls)
     cegterg:upda :      0.90s CPU      0.80s WALL (    7587 calls)
     cegterg:last :      0.42s CPU      0.46s WALL (    1735 calls)

     Called by h_psi:
     h_psi:pot    :     16.54s CPU     17.10s WALL (    8775 calls)
     h_psi:calbec :      0.36s CPU      0.42s WALL (    8775 calls)
     vloc_psi     :     15.82s CPU     16.39s WALL (    8775 calls)
     add_vuspsi   :      0.33s CPU      0.27s WALL (    8775 calls)

     General routines
     calbec       :      0.35s CPU      0.41s WALL (    8775 calls)
     fft          :      0.00s CPU      0.02s WALL (       3 calls)
     fftw         :     14.19s CPU     14.72s WALL (  238254 calls)
     davcio       :      0.06s CPU      0.72s WALL (    1160 calls)
 
     Parallel routines
     fft_scatter  :      4.46s CPU      4.56s WALL (  238257 calls)
 
     PWSCF        :    34.88s CPU        57.11s WALL

 
   This run was terminated on:   7:13:15   2Jun2017            

=------------------------------------------------------------------------------=
   JOB DONE.
=------------------------------------------------------------------------------=
