
     Program PWSCF v.6.1 starts on  2Jun2017 at  7: 9:38 

     This program is part of the open-source Quantum ESPRESSO suite
     for quantum simulation of materials; please cite
         "P. Giannozzi et al., J. Phys.:Condens. Matter 21 395502 (2009);
          URL http://www.quantum-espresso.org", 
     in publications or presentations arising from this work. More details at
     http://www.quantum-espresso.org/quote

     Parallel version (MPI & OpenMP), running on       8 processor cores
     Number of MPI processes:                 8
     Threads/MPI process:                     1
     R & G space division:  proc/nbgrp/npool/nimage =       8
     Reading input from scf.in
Warning: card &IONS ignored
Warning: card / ignored

     Current dimensions of program PWSCF are:
     Max number of different atomic species (ntypx) = 10
     Max number of k-points (npk) =  40000
     Max angular momentum in pseudopotentials (lmaxx) =  3
     WARNING: atomic wfc #  4 for atom type 1 has zero norm
               file 06-c.lda.fhi.UPF: wavefunction(s)  4f renormalized

     Subspace diagonalization in iterative solution of the eigenvalue problem:
     a serial algorithm will be used

 
     Parallelization info
     --------------------
     sticks:   dense  smooth     PW     G-vecs:    dense   smooth      PW
     Min         120     120     37                 2521     2521     433
     Max         121     121     38                 2524     2524     436
     Sum         967     967    301                20179    20179    3479
 


     bravais-lattice index     =            0
     lattice parameter (alat)  =       5.9717  a.u.
     unit-cell volume          =     150.5858 (a.u.)^3
     number of atoms/cell      =            2
     number of atomic types    =            2
     number of electrons       =        17.00
     number of Kohn-Sham states=           24
     kinetic-energy cutoff     =     100.0000  Ry
     charge density cutoff     =     400.0000  Ry
     convergence threshold     =      1.1E-06
     mixing beta               =       0.3000
     number of iterations used =            8  plain     mixing
     Exchange-correlation      = SLA-PW ( 1  4  0  0 0 0)

     celldm(1)=   5.971724  celldm(2)=   0.000000  celldm(3)=   0.000000
     celldm(4)=   0.000000  celldm(5)=   0.000000  celldm(6)=   0.000000

     crystal axes: (cart. coord. in units of alat)
               a(1) = (   1.000000   0.000000   0.000000 )  
               a(2) = (   0.500000   0.866025   0.000000 )  
               a(3) = (   0.500000   0.288675   0.816497 )  

     reciprocal axes: (cart. coord. in units 2 pi/alat)
               b(1) = (  1.000000 -0.577350 -0.408248 )  
               b(2) = (  0.000000  1.154701 -0.408248 )  
               b(3) = (  0.000000  0.000000  1.224745 )  


     PseudoPot. # 1 for Nb read from file:
     ./nb.fhi.UPF
     MD5 check sum: 4f71706d5dc12bdd9bf23a8f1f1a4338
     Pseudo is Norm-conserving, Zval = 13.0
     Generated using FHI98PP, converted with fhi2upf.x v.5.0.2
     Using radial grid of 1171 points,  3 beta functions with: 
                l(1) =   0
                l(2) =   1
                l(3) =   2

     PseudoPot. # 2 for  C read from file:
     ./06-c.lda.fhi.UPF
     MD5 check sum: 13ff76dfb29e90984447383659675a25
     Pseudo is Norm-conserving, Zval =  4.0
     Generated using FHI98PP, converted with fhi2upf.x v.5.0.1
     Using radial grid of  461 points,  3 beta functions with: 
                l(1) =   0
                l(2) =   1
                l(3) =   3

     atomic species   valence    mass     pseudopotential
        Nb            13.00    92.90640     Nb( 1.00)
        C              4.00    12.01070      C( 1.00)

     12 Sym. Ops., with inversion, found


                                    s                        frac. trans.

      isym =  1     identity                                     

 cryst.   s( 1) = (     1          0          0      )
                  (     0          1          0      )
                  (     0          0          1      )

 cart.    s( 1) = (  1.0000000  0.0000000 -0.0000000 )
                  (  0.0000000  1.0000000 -0.0000000 )
                  (  0.0000000  0.0000000  1.0000000 )


      isym =  2     180 deg rotation - cart. axis [1,0,0]        

 cryst.   s( 2) = (     1          0          0      )
                  (     1         -1          0      )
                  (     1          0         -1      )

 cart.    s( 2) = (  1.0000000  0.0000000 -0.0000000 )
                  (  0.0000000 -1.0000000  0.0000000 )
                  (  0.0000000  0.0000000 -1.0000000 )


      isym =  3     120 deg rotation - cryst. axis [0,0,1]       

 cryst.   s( 3) = (    -1          1          0      )
                  (    -1          0          0      )
                  (    -1          0          1      )

 cart.    s( 3) = ( -0.5000000 -0.8660254  0.0000000 )
                  (  0.8660254 -0.5000000 -0.0000000 )
                  (  0.0000000  0.0000000  1.0000000 )


      isym =  4     120 deg rotation - cryst. axis [0,0,-1]      

 cryst.   s( 4) = (     0         -1          0      )
                  (     1         -1          0      )
                  (     0         -1          1      )

 cart.    s( 4) = ( -0.5000000  0.8660254  0.0000000 )
                  ( -0.8660254 -0.5000000  0.0000000 )
                  (  0.0000000  0.0000000  1.0000000 )


      isym =  5     180 deg rotation - cryst. axis [0,1,0]       

 cryst.   s( 5) = (     0         -1          0      )
                  (    -1          0          0      )
                  (     0          0         -1      )

 cart.    s( 5) = ( -0.5000000 -0.8660254  0.0000000 )
                  ( -0.8660254  0.5000000  0.0000000 )
                  (  0.0000000  0.0000000 -1.0000000 )


      isym =  6     180 deg rotation - cryst. axis [1,1,0]       

 cryst.   s( 6) = (    -1          1          0      )
                  (     0          1          0      )
                  (     0          1         -1      )

 cart.    s( 6) = ( -0.5000000  0.8660254  0.0000000 )
                  (  0.8660254  0.5000000 -0.0000000 )
                  (  0.0000000  0.0000000 -1.0000000 )


      isym =  7     inversion                                    

 cryst.   s( 7) = (    -1          0          0      )
                  (     0         -1          0      )
                  (     0          0         -1      )

 cart.    s( 7) = ( -1.0000000  0.0000000  0.0000000 )
                  (  0.0000000 -1.0000000  0.0000000 )
                  (  0.0000000  0.0000000 -1.0000000 )


      isym =  8     inv. 180 deg rotation - cart. axis [1,0,0]   

 cryst.   s( 8) = (    -1          0          0      )
                  (    -1          1          0      )
                  (    -1          0          1      )

 cart.    s( 8) = ( -1.0000000  0.0000000  0.0000000 )
                  (  0.0000000  1.0000000 -0.0000000 )
                  (  0.0000000  0.0000000  1.0000000 )


      isym =  9     inv. 120 deg rotation - cryst. axis [0,0,1]  

 cryst.   s( 9) = (     1         -1          0      )
                  (     1          0          0      )
                  (     1          0         -1      )

 cart.    s( 9) = (  0.5000000  0.8660254 -0.0000000 )
                  ( -0.8660254  0.5000000  0.0000000 )
                  (  0.0000000  0.0000000 -1.0000000 )


      isym = 10     inv. 120 deg rotation - cryst. axis [0,0,-1] 

 cryst.   s(10) = (     0          1          0      )
                  (    -1          1          0      )
                  (     0          1         -1      )

 cart.    s(10) = (  0.5000000 -0.8660254  0.0000000 )
                  (  0.8660254  0.5000000 -0.0000000 )
                  (  0.0000000  0.0000000 -1.0000000 )


      isym = 11     inv. 180 deg rotation - cryst. axis [0,1,0]  

 cryst.   s(11) = (     0          1          0      )
                  (     1          0          0      )
                  (     0          0          1      )

 cart.    s(11) = (  0.5000000  0.8660254 -0.0000000 )
                  (  0.8660254 -0.5000000 -0.0000000 )
                  (  0.0000000  0.0000000  1.0000000 )


      isym = 12     inv. 180 deg rotation - cryst. axis [1,1,0]  

 cryst.   s(12) = (     1         -1          0      )
                  (     0         -1          0      )
                  (     0         -1          1      )

 cart.    s(12) = (  0.5000000 -0.8660254  0.0000000 )
                  ( -0.8660254 -0.5000000  0.0000000 )
                  (  0.0000000  0.0000000  1.0000000 )


   Cartesian axes

     site n.     atom                  positions (alat units)
         1           Nb  tau(   1) = (   0.0000000   0.0000000   0.0000000  )
         2           C   tau(   2) = (   1.0000000   0.5773503   0.4082483  )

   Crystallographic axes

     site n.     atom                  positions (cryst. coord.)
         1           Nb  tau(   1) = (  0.0000000  0.0000000  0.0000000  )
         2           C   tau(   2) = (  0.5000000  0.5000000  0.5000000  )

     number of k points=   580  Fermi-Dirac smearing, width (Ry)=  0.0200
                       cart. coord. in units 2pi/alat
        k(    1) = (   0.0000000   0.0000000   0.0000000), wk =   0.0003429
        k(    2) = (   0.0000000   0.0000000   0.0680414), wk =   0.0006859
        k(    3) = (   0.0000000   0.0000000   0.1360828), wk =   0.0006859
        k(    4) = (   0.0000000   0.0000000   0.2041241), wk =   0.0006859
        k(    5) = (   0.0000000   0.0000000   0.2721655), wk =   0.0006859
        k(    6) = (   0.0000000   0.0000000   0.3402069), wk =   0.0006859
        k(    7) = (   0.0000000   0.0000000   0.4082483), wk =   0.0006859
        k(    8) = (   0.0000000   0.0000000   0.4762897), wk =   0.0006859
        k(    9) = (   0.0000000   0.0000000   0.5443311), wk =   0.0006859
        k(   10) = (   0.0000000   0.0000000  -0.6123724), wk =   0.0003429
        k(   11) = (   0.0000000   0.0641500  -0.0226805), wk =   0.0020576
        k(   12) = (   0.0000000   0.0641500   0.0453609), wk =   0.0020576
        k(   13) = (   0.0000000   0.0641500   0.1134023), wk =   0.0020576
        k(   14) = (   0.0000000   0.0641500   0.1814437), wk =   0.0020576
        k(   15) = (   0.0000000   0.0641500   0.2494851), wk =   0.0020576
        k(   16) = (   0.0000000   0.0641500   0.3175264), wk =   0.0020576
        k(   17) = (   0.0000000   0.0641500   0.3855678), wk =   0.0020576
        k(   18) = (   0.0000000   0.0641500   0.4536092), wk =   0.0020576
        k(   19) = (   0.0000000   0.0641500   0.5216506), wk =   0.0020576
        k(   20) = (   0.0000000   0.0641500  -0.6350529), wk =   0.0020576
        k(   21) = (   0.0000000   0.0641500  -0.5670115), wk =   0.0020576
        k(   22) = (   0.0000000   0.0641500  -0.4989701), wk =   0.0020576
        k(   23) = (   0.0000000   0.0641500  -0.4309288), wk =   0.0020576
        k(   24) = (   0.0000000   0.0641500  -0.3628874), wk =   0.0020576
        k(   25) = (   0.0000000   0.0641500  -0.2948460), wk =   0.0020576
        k(   26) = (   0.0000000   0.0641500  -0.2268046), wk =   0.0020576
        k(   27) = (   0.0000000   0.0641500  -0.1587632), wk =   0.0020576
        k(   28) = (   0.0000000   0.0641500  -0.0907218), wk =   0.0020576
        k(   29) = (   0.0000000   0.1283001  -0.0453609), wk =   0.0020576
        k(   30) = (   0.0000000   0.1283001   0.0226805), wk =   0.0020576
        k(   31) = (   0.0000000   0.1283001   0.0907218), wk =   0.0020576
        k(   32) = (   0.0000000   0.1283001   0.1587632), wk =   0.0020576
        k(   33) = (   0.0000000   0.1283001   0.2268046), wk =   0.0020576
        k(   34) = (   0.0000000   0.1283001   0.2948460), wk =   0.0020576
        k(   35) = (   0.0000000   0.1283001   0.3628874), wk =   0.0020576
        k(   36) = (   0.0000000   0.1283001   0.4309288), wk =   0.0020576
        k(   37) = (   0.0000000   0.1283001   0.4989701), wk =   0.0020576
        k(   38) = (   0.0000000   0.1283001  -0.6577334), wk =   0.0020576
        k(   39) = (   0.0000000   0.1283001  -0.5896920), wk =   0.0020576
        k(   40) = (   0.0000000   0.1283001  -0.5216506), wk =   0.0020576
        k(   41) = (   0.0000000   0.1283001  -0.4536092), wk =   0.0020576
        k(   42) = (   0.0000000   0.1283001  -0.3855678), wk =   0.0020576
        k(   43) = (   0.0000000   0.1283001  -0.3175264), wk =   0.0020576
        k(   44) = (   0.0000000   0.1283001  -0.2494851), wk =   0.0020576
        k(   45) = (   0.0000000   0.1283001  -0.1814437), wk =   0.0020576
        k(   46) = (   0.0000000   0.1283001  -0.1134023), wk =   0.0020576
        k(   47) = (   0.0000000   0.1924501  -0.0680414), wk =   0.0020576
        k(   48) = (   0.0000000   0.1924501  -0.0000000), wk =   0.0020576
        k(   49) = (   0.0000000   0.1924501   0.0680414), wk =   0.0020576
        k(   50) = (   0.0000000   0.1924501   0.1360828), wk =   0.0020576
        k(   51) = (   0.0000000   0.1924501   0.2041241), wk =   0.0020576
        k(   52) = (   0.0000000   0.1924501   0.2721655), wk =   0.0020576
        k(   53) = (   0.0000000   0.1924501   0.3402069), wk =   0.0020576
        k(   54) = (   0.0000000   0.1924501   0.4082483), wk =   0.0020576
        k(   55) = (   0.0000000   0.1924501   0.4762897), wk =   0.0020576
        k(   56) = (   0.0000000   0.1924501  -0.6804138), wk =   0.0020576
        k(   57) = (   0.0000000   0.1924501  -0.6123724), wk =   0.0020576
        k(   58) = (   0.0000000   0.1924501  -0.5443311), wk =   0.0020576
        k(   59) = (   0.0000000   0.1924501  -0.4762897), wk =   0.0020576
        k(   60) = (   0.0000000   0.1924501  -0.4082483), wk =   0.0020576
        k(   61) = (   0.0000000   0.1924501  -0.3402069), wk =   0.0020576
        k(   62) = (   0.0000000   0.1924501  -0.2721655), wk =   0.0020576
        k(   63) = (   0.0000000   0.1924501  -0.2041241), wk =   0.0020576
        k(   64) = (   0.0000000   0.1924501  -0.1360828), wk =   0.0020576
        k(   65) = (   0.0000000   0.2566001  -0.0907218), wk =   0.0020576
        k(   66) = (   0.0000000   0.2566001  -0.0226805), wk =   0.0020576
        k(   67) = (   0.0000000   0.2566001   0.0453609), wk =   0.0020576
        k(   68) = (   0.0000000   0.2566001   0.1134023), wk =   0.0020576
        k(   69) = (   0.0000000   0.2566001   0.1814437), wk =   0.0020576
        k(   70) = (   0.0000000   0.2566001   0.2494851), wk =   0.0020576
        k(   71) = (   0.0000000   0.2566001   0.3175264), wk =   0.0020576
        k(   72) = (   0.0000000   0.2566001   0.3855678), wk =   0.0020576
        k(   73) = (   0.0000000   0.2566001   0.4536092), wk =   0.0020576
        k(   74) = (   0.0000000   0.2566001  -0.7030943), wk =   0.0020576
        k(   75) = (   0.0000000   0.2566001  -0.6350529), wk =   0.0020576
        k(   76) = (   0.0000000   0.2566001  -0.5670115), wk =   0.0020576
        k(   77) = (   0.0000000   0.2566001  -0.4989701), wk =   0.0020576
        k(   78) = (   0.0000000   0.2566001  -0.4309288), wk =   0.0020576
        k(   79) = (   0.0000000   0.2566001  -0.3628874), wk =   0.0020576
        k(   80) = (   0.0000000   0.2566001  -0.2948460), wk =   0.0020576
        k(   81) = (   0.0000000   0.2566001  -0.2268046), wk =   0.0020576
        k(   82) = (   0.0000000   0.2566001  -0.1587632), wk =   0.0020576
        k(   83) = (   0.0000000   0.3207501  -0.1134023), wk =   0.0020576
        k(   84) = (   0.0000000   0.3207501  -0.0453609), wk =   0.0020576
        k(   85) = (   0.0000000   0.3207501   0.0226805), wk =   0.0020576
        k(   86) = (   0.0000000   0.3207501   0.0907218), wk =   0.0020576
        k(   87) = (   0.0000000   0.3207501   0.1587632), wk =   0.0020576
        k(   88) = (   0.0000000   0.3207501   0.2268046), wk =   0.0020576
        k(   89) = (   0.0000000   0.3207501   0.2948460), wk =   0.0020576
        k(   90) = (   0.0000000   0.3207501   0.3628874), wk =   0.0020576
        k(   91) = (   0.0000000   0.3207501   0.4309288), wk =   0.0020576
        k(   92) = (   0.0000000   0.3207501  -0.7257747), wk =   0.0020576
        k(   93) = (   0.0000000   0.3207501  -0.6577334), wk =   0.0020576
        k(   94) = (   0.0000000   0.3207501  -0.5896920), wk =   0.0020576
        k(   95) = (   0.0000000   0.3207501  -0.5216506), wk =   0.0020576
        k(   96) = (   0.0000000   0.3207501  -0.4536092), wk =   0.0020576
        k(   97) = (   0.0000000   0.3207501  -0.3855678), wk =   0.0020576
        k(   98) = (   0.0000000   0.3207501  -0.3175264), wk =   0.0020576
        k(   99) = (   0.0000000   0.3207501  -0.2494851), wk =   0.0020576
        k(  100) = (   0.0000000   0.3207501  -0.1814437), wk =   0.0020576
        k(  101) = (   0.0000000   0.3849002  -0.1360828), wk =   0.0020576
        k(  102) = (   0.0000000   0.3849002  -0.0680414), wk =   0.0020576
        k(  103) = (   0.0000000   0.3849002  -0.0000000), wk =   0.0020576
        k(  104) = (   0.0000000   0.3849002   0.0680414), wk =   0.0020576
        k(  105) = (   0.0000000   0.3849002   0.1360828), wk =   0.0020576
        k(  106) = (   0.0000000   0.3849002   0.2041241), wk =   0.0020576
        k(  107) = (   0.0000000   0.3849002   0.2721655), wk =   0.0020576
        k(  108) = (   0.0000000   0.3849002   0.3402069), wk =   0.0020576
        k(  109) = (   0.0000000   0.3849002   0.4082483), wk =   0.0020576
        k(  110) = (   0.0000000   0.3849002  -0.7484552), wk =   0.0020576
        k(  111) = (   0.0000000   0.3849002  -0.6804138), wk =   0.0020576
        k(  112) = (   0.0000000   0.3849002  -0.6123724), wk =   0.0020576
        k(  113) = (   0.0000000   0.3849002  -0.5443311), wk =   0.0020576
        k(  114) = (   0.0000000   0.3849002  -0.4762897), wk =   0.0020576
        k(  115) = (   0.0000000   0.3849002  -0.4082483), wk =   0.0020576
        k(  116) = (   0.0000000   0.3849002  -0.3402069), wk =   0.0020576
        k(  117) = (   0.0000000   0.3849002  -0.2721655), wk =   0.0020576
        k(  118) = (   0.0000000   0.3849002  -0.2041241), wk =   0.0020576
        k(  119) = (   0.0000000   0.4490502  -0.1587632), wk =   0.0020576
        k(  120) = (   0.0000000   0.4490502  -0.0907218), wk =   0.0020576
        k(  121) = (   0.0000000   0.4490502  -0.0226805), wk =   0.0020576
        k(  122) = (   0.0000000   0.4490502   0.0453609), wk =   0.0020576
        k(  123) = (   0.0000000   0.4490502   0.1134023), wk =   0.0020576
        k(  124) = (   0.0000000   0.4490502   0.1814437), wk =   0.0020576
        k(  125) = (   0.0000000   0.4490502   0.2494851), wk =   0.0020576
        k(  126) = (   0.0000000   0.4490502   0.3175264), wk =   0.0020576
        k(  127) = (   0.0000000   0.4490502   0.3855678), wk =   0.0020576
        k(  128) = (   0.0000000   0.4490502  -0.7711357), wk =   0.0020576
        k(  129) = (   0.0000000   0.4490502  -0.7030943), wk =   0.0020576
        k(  130) = (   0.0000000   0.4490502  -0.6350529), wk =   0.0020576
        k(  131) = (   0.0000000   0.4490502  -0.5670115), wk =   0.0020576
        k(  132) = (   0.0000000   0.4490502  -0.4989701), wk =   0.0020576
        k(  133) = (   0.0000000   0.4490502  -0.4309288), wk =   0.0020576
        k(  134) = (   0.0000000   0.4490502  -0.3628874), wk =   0.0020576
        k(  135) = (   0.0000000   0.4490502  -0.2948460), wk =   0.0020576
        k(  136) = (   0.0000000   0.4490502  -0.2268046), wk =   0.0020576
        k(  137) = (   0.0000000   0.5132002  -0.1814437), wk =   0.0020576
        k(  138) = (   0.0000000   0.5132002  -0.1134023), wk =   0.0020576
        k(  139) = (   0.0000000   0.5132002  -0.0453609), wk =   0.0020576
        k(  140) = (   0.0000000   0.5132002   0.0226805), wk =   0.0020576
        k(  141) = (   0.0000000   0.5132002   0.0907218), wk =   0.0020576
        k(  142) = (   0.0000000   0.5132002   0.1587632), wk =   0.0020576
        k(  143) = (   0.0000000   0.5132002   0.2268046), wk =   0.0020576
        k(  144) = (   0.0000000   0.5132002   0.2948460), wk =   0.0020576
        k(  145) = (   0.0000000   0.5132002   0.3628874), wk =   0.0020576
        k(  146) = (   0.0000000   0.5132002  -0.7938161), wk =   0.0020576
        k(  147) = (   0.0000000   0.5132002  -0.7257747), wk =   0.0020576
        k(  148) = (   0.0000000   0.5132002  -0.6577334), wk =   0.0020576
        k(  149) = (   0.0000000   0.5132002  -0.5896920), wk =   0.0020576
        k(  150) = (   0.0000000   0.5132002  -0.5216506), wk =   0.0020576
        k(  151) = (   0.0000000   0.5132002  -0.4536092), wk =   0.0020576
        k(  152) = (   0.0000000   0.5132002  -0.3855678), wk =   0.0020576
        k(  153) = (   0.0000000   0.5132002  -0.3175264), wk =   0.0020576
        k(  154) = (   0.0000000   0.5132002  -0.2494851), wk =   0.0020576
        k(  155) = (   0.0000000  -0.5773503   0.2041241), wk =   0.0010288
        k(  156) = (   0.0000000  -0.5773503   0.2721655), wk =   0.0020576
        k(  157) = (   0.0000000  -0.5773503   0.3402069), wk =   0.0020576
        k(  158) = (   0.0000000  -0.5773503   0.4082483), wk =   0.0020576
        k(  159) = (   0.0000000  -0.5773503   0.4762897), wk =   0.0020576
        k(  160) = (   0.0000000  -0.5773503   0.5443311), wk =   0.0020576
        k(  161) = (   0.0000000  -0.5773503   0.6123724), wk =   0.0020576
        k(  162) = (   0.0000000  -0.5773503   0.6804138), wk =   0.0020576
        k(  163) = (   0.0000000  -0.5773503   0.7484552), wk =   0.0020576
        k(  164) = (   0.0000000  -0.5773503  -0.4082483), wk =   0.0010288
        k(  165) = (   0.0555556   0.0962250  -0.0680414), wk =   0.0041152
        k(  166) = (   0.0555556   0.0962250  -0.0000000), wk =   0.0020576
        k(  167) = (   0.0555556   0.0962250   0.1360828), wk =   0.0041152
        k(  168) = (   0.0555556   0.0962250   0.2041241), wk =   0.0041152
        k(  169) = (   0.0555556   0.0962250   0.2721655), wk =   0.0041152
        k(  170) = (   0.0555556   0.0962250   0.3402069), wk =   0.0041152
        k(  171) = (   0.0555556   0.0962250   0.4082483), wk =   0.0041152
        k(  172) = (   0.0555556   0.0962250   0.4762897), wk =   0.0041152
        k(  173) = (   0.0555556   0.0962250  -0.6804138), wk =   0.0041152
        k(  174) = (   0.0555556   0.0962250  -0.6123724), wk =   0.0020576
        k(  175) = (   0.0555556   0.1603751  -0.0907218), wk =   0.0041152
        k(  176) = (   0.0555556   0.1603751  -0.0226805), wk =   0.0041152
        k(  177) = (   0.0555556   0.1603751   0.0453609), wk =   0.0041152
        k(  178) = (   0.0555556   0.1603751   0.1134023), wk =   0.0041152
        k(  179) = (   0.0555556   0.1603751   0.1814437), wk =   0.0041152
        k(  180) = (   0.0555556   0.1603751   0.2494851), wk =   0.0041152
        k(  181) = (   0.0555556   0.1603751   0.3175264), wk =   0.0041152
        k(  182) = (   0.0555556   0.1603751   0.3855678), wk =   0.0041152
        k(  183) = (   0.0555556   0.1603751   0.4536092), wk =   0.0041152
        k(  184) = (   0.0555556   0.1603751  -0.7030943), wk =   0.0041152
        k(  185) = (   0.0555556   0.1603751  -0.6350529), wk =   0.0041152
        k(  186) = (   0.0555556   0.1603751  -0.5670115), wk =   0.0041152
        k(  187) = (   0.0555556   0.1603751  -0.4989701), wk =   0.0041152
        k(  188) = (   0.0555556   0.1603751  -0.4309288), wk =   0.0041152
        k(  189) = (   0.0555556   0.1603751  -0.3628874), wk =   0.0041152
        k(  190) = (   0.0555556   0.1603751  -0.2948460), wk =   0.0041152
        k(  191) = (   0.0555556   0.1603751  -0.2268046), wk =   0.0041152
        k(  192) = (   0.0555556   0.1603751  -0.1587632), wk =   0.0041152
        k(  193) = (   0.0555556   0.2245251  -0.1134023), wk =   0.0041152
        k(  194) = (   0.0555556   0.2245251  -0.0453609), wk =   0.0041152
        k(  195) = (   0.0555556   0.2245251   0.0226805), wk =   0.0041152
        k(  196) = (   0.0555556   0.2245251   0.0907218), wk =   0.0041152
        k(  197) = (   0.0555556   0.2245251   0.1587632), wk =   0.0041152
        k(  198) = (   0.0555556   0.2245251   0.2268046), wk =   0.0041152
        k(  199) = (   0.0555556   0.2245251   0.2948460), wk =   0.0041152
        k(  200) = (   0.0555556   0.2245251   0.3628874), wk =   0.0041152
        k(  201) = (   0.0555556   0.2245251   0.4309288), wk =   0.0041152
        k(  202) = (   0.0555556   0.2245251  -0.7257747), wk =   0.0041152
        k(  203) = (   0.0555556   0.2245251  -0.6577334), wk =   0.0041152
        k(  204) = (   0.0555556   0.2245251  -0.5896920), wk =   0.0041152
        k(  205) = (   0.0555556   0.2245251  -0.5216506), wk =   0.0041152
        k(  206) = (   0.0555556   0.2245251  -0.4536092), wk =   0.0041152
        k(  207) = (   0.0555556   0.2245251  -0.3855678), wk =   0.0041152
        k(  208) = (   0.0555556   0.2245251  -0.3175264), wk =   0.0041152
        k(  209) = (   0.0555556   0.2245251  -0.2494851), wk =   0.0041152
        k(  210) = (   0.0555556   0.2245251  -0.1814437), wk =   0.0041152
        k(  211) = (   0.0555556   0.2886751  -0.1360828), wk =   0.0041152
        k(  212) = (   0.0555556   0.2886751  -0.0680414), wk =   0.0041152
        k(  213) = (   0.0555556   0.2886751  -0.0000000), wk =   0.0041152
        k(  214) = (   0.0555556   0.2886751   0.0680414), wk =   0.0041152
        k(  215) = (   0.0555556   0.2886751   0.1360828), wk =   0.0041152
        k(  216) = (   0.0555556   0.2886751   0.2041241), wk =   0.0041152
        k(  217) = (   0.0555556   0.2886751   0.2721655), wk =   0.0041152
        k(  218) = (   0.0555556   0.2886751   0.3402069), wk =   0.0041152
        k(  219) = (   0.0555556   0.2886751   0.4082483), wk =   0.0041152
        k(  220) = (   0.0555556   0.2886751  -0.7484552), wk =   0.0041152
        k(  221) = (   0.0555556   0.2886751  -0.6804138), wk =   0.0041152
        k(  222) = (   0.0555556   0.2886751  -0.6123724), wk =   0.0041152
        k(  223) = (   0.0555556   0.2886751  -0.5443311), wk =   0.0041152
        k(  224) = (   0.0555556   0.2886751  -0.4762897), wk =   0.0041152
        k(  225) = (   0.0555556   0.2886751  -0.4082483), wk =   0.0041152
        k(  226) = (   0.0555556   0.2886751  -0.3402069), wk =   0.0041152
        k(  227) = (   0.0555556   0.2886751  -0.2721655), wk =   0.0041152
        k(  228) = (   0.0555556   0.2886751  -0.2041241), wk =   0.0041152
        k(  229) = (   0.0555556   0.3528252  -0.1587632), wk =   0.0041152
        k(  230) = (   0.0555556   0.3528252  -0.0907218), wk =   0.0041152
        k(  231) = (   0.0555556   0.3528252  -0.0226805), wk =   0.0041152
        k(  232) = (   0.0555556   0.3528252   0.0453609), wk =   0.0041152
        k(  233) = (   0.0555556   0.3528252   0.1134023), wk =   0.0041152
        k(  234) = (   0.0555556   0.3528252   0.1814437), wk =   0.0041152
        k(  235) = (   0.0555556   0.3528252   0.2494851), wk =   0.0041152
        k(  236) = (   0.0555556   0.3528252   0.3175264), wk =   0.0041152
        k(  237) = (   0.0555556   0.3528252   0.3855678), wk =   0.0041152
        k(  238) = (   0.0555556   0.3528252  -0.7711357), wk =   0.0041152
        k(  239) = (   0.0555556   0.3528252  -0.7030943), wk =   0.0041152
        k(  240) = (   0.0555556   0.3528252  -0.6350529), wk =   0.0041152
        k(  241) = (   0.0555556   0.3528252  -0.5670115), wk =   0.0041152
        k(  242) = (   0.0555556   0.3528252  -0.4989701), wk =   0.0041152
        k(  243) = (   0.0555556   0.3528252  -0.4309288), wk =   0.0041152
        k(  244) = (   0.0555556   0.3528252  -0.3628874), wk =   0.0041152
        k(  245) = (   0.0555556   0.3528252  -0.2948460), wk =   0.0041152
        k(  246) = (   0.0555556   0.3528252  -0.2268046), wk =   0.0041152
        k(  247) = (   0.0555556   0.4169752  -0.1814437), wk =   0.0041152
        k(  248) = (   0.0555556   0.4169752  -0.1134023), wk =   0.0041152
        k(  249) = (   0.0555556   0.4169752  -0.0453609), wk =   0.0041152
        k(  250) = (   0.0555556   0.4169752   0.0226805), wk =   0.0041152
        k(  251) = (   0.0555556   0.4169752   0.0907218), wk =   0.0041152
        k(  252) = (   0.0555556   0.4169752   0.1587632), wk =   0.0041152
        k(  253) = (   0.0555556   0.4169752   0.2268046), wk =   0.0041152
        k(  254) = (   0.0555556   0.4169752   0.2948460), wk =   0.0041152
        k(  255) = (   0.0555556   0.4169752   0.3628874), wk =   0.0041152
        k(  256) = (   0.0555556   0.4169752  -0.7938161), wk =   0.0041152
        k(  257) = (   0.0555556   0.4169752  -0.7257747), wk =   0.0041152
        k(  258) = (   0.0555556   0.4169752  -0.6577334), wk =   0.0041152
        k(  259) = (   0.0555556   0.4169752  -0.5896920), wk =   0.0041152
        k(  260) = (   0.0555556   0.4169752  -0.5216506), wk =   0.0041152
        k(  261) = (   0.0555556   0.4169752  -0.4536092), wk =   0.0041152
        k(  262) = (   0.0555556   0.4169752  -0.3855678), wk =   0.0041152
        k(  263) = (   0.0555556   0.4169752  -0.3175264), wk =   0.0041152
        k(  264) = (   0.0555556   0.4169752  -0.2494851), wk =   0.0041152
        k(  265) = (   0.0555556   0.4811252  -0.2041241), wk =   0.0041152
        k(  266) = (   0.0555556   0.4811252  -0.1360828), wk =   0.0041152
        k(  267) = (   0.0555556   0.4811252  -0.0680414), wk =   0.0041152
        k(  268) = (   0.0555556   0.4811252  -0.0000000), wk =   0.0041152
        k(  269) = (   0.0555556   0.4811252   0.0680414), wk =   0.0041152
        k(  270) = (   0.0555556   0.4811252   0.1360828), wk =   0.0041152
        k(  271) = (   0.0555556   0.4811252   0.2041241), wk =   0.0041152
        k(  272) = (   0.0555556   0.4811252   0.2721655), wk =   0.0041152
        k(  273) = (   0.0555556   0.4811252   0.3402069), wk =   0.0041152
        k(  274) = (   0.0555556   0.4811252  -0.8164966), wk =   0.0041152
        k(  275) = (   0.0555556   0.4811252  -0.7484552), wk =   0.0041152
        k(  276) = (   0.0555556   0.4811252  -0.6804138), wk =   0.0041152
        k(  277) = (   0.0555556   0.4811252  -0.6123724), wk =   0.0041152
        k(  278) = (   0.0555556   0.4811252  -0.5443311), wk =   0.0041152
        k(  279) = (   0.0555556   0.4811252  -0.4762897), wk =   0.0041152
        k(  280) = (   0.0555556   0.4811252  -0.4082483), wk =   0.0041152
        k(  281) = (   0.0555556   0.4811252  -0.3402069), wk =   0.0041152
        k(  282) = (   0.0555556   0.4811252  -0.2721655), wk =   0.0041152
        k(  283) = (   0.0555556  -0.6094253   0.1814437), wk =   0.0041152
        k(  284) = (   0.0555556  -0.6094253   0.2494851), wk =   0.0041152
        k(  285) = (   0.0555556  -0.6094253   0.3175264), wk =   0.0041152
        k(  286) = (   0.0555556  -0.6094253   0.3855678), wk =   0.0041152
        k(  287) = (   0.0555556  -0.6094253   0.4536092), wk =   0.0041152
        k(  288) = (   0.0555556  -0.6094253   0.5216506), wk =   0.0041152
        k(  289) = (   0.0555556  -0.6094253   0.5896920), wk =   0.0041152
        k(  290) = (   0.0555556  -0.6094253   0.6577334), wk =   0.0041152
        k(  291) = (   0.0555556  -0.6094253   0.7257747), wk =   0.0041152
        k(  292) = (   0.0555556  -0.6094253  -0.4309288), wk =   0.0041152
        k(  293) = (   0.0555556  -0.6094253  -0.3628874), wk =   0.0041152
        k(  294) = (   0.0555556  -0.6094253  -0.2948460), wk =   0.0041152
        k(  295) = (   0.0555556  -0.6094253  -0.2268046), wk =   0.0041152
        k(  296) = (   0.0555556  -0.6094253  -0.1587632), wk =   0.0041152
        k(  297) = (   0.0555556  -0.6094253  -0.0907218), wk =   0.0041152
        k(  298) = (   0.0555556  -0.6094253  -0.0226805), wk =   0.0041152
        k(  299) = (   0.0555556  -0.6094253   0.0453609), wk =   0.0041152
        k(  300) = (   0.0555556  -0.6094253   0.1134023), wk =   0.0041152
        k(  301) = (   0.1111111   0.1924501  -0.1360828), wk =   0.0041152
        k(  302) = (   0.1111111   0.1924501  -0.0680414), wk =   0.0041152
        k(  303) = (   0.1111111   0.1924501  -0.0000000), wk =   0.0020576
        k(  304) = (   0.1111111   0.1924501   0.2041241), wk =   0.0041152
        k(  305) = (   0.1111111   0.1924501   0.2721655), wk =   0.0041152
        k(  306) = (   0.1111111   0.1924501   0.3402069), wk =   0.0041152
        k(  307) = (   0.1111111   0.1924501   0.4082483), wk =   0.0041152
        k(  308) = (   0.1111111   0.1924501  -0.7484552), wk =   0.0041152
        k(  309) = (   0.1111111   0.1924501  -0.6804138), wk =   0.0041152
        k(  310) = (   0.1111111   0.1924501  -0.6123724), wk =   0.0020576
        k(  311) = (   0.1111111   0.2566001  -0.1587632), wk =   0.0041152
        k(  312) = (   0.1111111   0.2566001  -0.0907218), wk =   0.0041152
        k(  313) = (   0.1111111   0.2566001  -0.0226805), wk =   0.0041152
        k(  314) = (   0.1111111   0.2566001   0.0453609), wk =   0.0041152
        k(  315) = (   0.1111111   0.2566001   0.1134023), wk =   0.0041152
        k(  316) = (   0.1111111   0.2566001   0.1814437), wk =   0.0041152
        k(  317) = (   0.1111111   0.2566001   0.2494851), wk =   0.0041152
        k(  318) = (   0.1111111   0.2566001   0.3175264), wk =   0.0041152
        k(  319) = (   0.1111111   0.2566001   0.3855678), wk =   0.0041152
        k(  320) = (   0.1111111   0.2566001  -0.7711357), wk =   0.0041152
        k(  321) = (   0.1111111   0.2566001  -0.7030943), wk =   0.0041152
        k(  322) = (   0.1111111   0.2566001  -0.6350529), wk =   0.0041152
        k(  323) = (   0.1111111   0.2566001  -0.5670115), wk =   0.0041152
        k(  324) = (   0.1111111   0.2566001  -0.4989701), wk =   0.0041152
        k(  325) = (   0.1111111   0.2566001  -0.4309288), wk =   0.0041152
        k(  326) = (   0.1111111   0.2566001  -0.3628874), wk =   0.0041152
        k(  327) = (   0.1111111   0.2566001  -0.2948460), wk =   0.0041152
        k(  328) = (   0.1111111   0.2566001  -0.2268046), wk =   0.0041152
        k(  329) = (   0.1111111   0.3207501  -0.1814437), wk =   0.0041152
        k(  330) = (   0.1111111   0.3207501  -0.1134023), wk =   0.0041152
        k(  331) = (   0.1111111   0.3207501  -0.0453609), wk =   0.0041152
        k(  332) = (   0.1111111   0.3207501   0.0226805), wk =   0.0041152
        k(  333) = (   0.1111111   0.3207501   0.0907218), wk =   0.0041152
        k(  334) = (   0.1111111   0.3207501   0.1587632), wk =   0.0041152
        k(  335) = (   0.1111111   0.3207501   0.2268046), wk =   0.0041152
        k(  336) = (   0.1111111   0.3207501   0.2948460), wk =   0.0041152
        k(  337) = (   0.1111111   0.3207501   0.3628874), wk =   0.0041152
        k(  338) = (   0.1111111   0.3207501  -0.7938161), wk =   0.0041152
        k(  339) = (   0.1111111   0.3207501  -0.7257747), wk =   0.0041152
        k(  340) = (   0.1111111   0.3207501  -0.6577334), wk =   0.0041152
        k(  341) = (   0.1111111   0.3207501  -0.5896920), wk =   0.0041152
        k(  342) = (   0.1111111   0.3207501  -0.5216506), wk =   0.0041152
        k(  343) = (   0.1111111   0.3207501  -0.4536092), wk =   0.0041152
        k(  344) = (   0.1111111   0.3207501  -0.3855678), wk =   0.0041152
        k(  345) = (   0.1111111   0.3207501  -0.3175264), wk =   0.0041152
        k(  346) = (   0.1111111   0.3207501  -0.2494851), wk =   0.0041152
        k(  347) = (   0.1111111   0.3849002  -0.2041241), wk =   0.0041152
        k(  348) = (   0.1111111   0.3849002  -0.1360828), wk =   0.0041152
        k(  349) = (   0.1111111   0.3849002  -0.0680414), wk =   0.0041152
        k(  350) = (   0.1111111   0.3849002  -0.0000000), wk =   0.0041152
        k(  351) = (   0.1111111   0.3849002   0.0680414), wk =   0.0041152
        k(  352) = (   0.1111111   0.3849002   0.1360828), wk =   0.0041152
        k(  353) = (   0.1111111   0.3849002   0.2041241), wk =   0.0041152
        k(  354) = (   0.1111111   0.3849002   0.2721655), wk =   0.0041152
        k(  355) = (   0.1111111   0.3849002   0.3402069), wk =   0.0041152
        k(  356) = (   0.1111111   0.3849002  -0.8164966), wk =   0.0041152
        k(  357) = (   0.1111111   0.3849002  -0.7484552), wk =   0.0041152
        k(  358) = (   0.1111111   0.3849002  -0.6804138), wk =   0.0041152
        k(  359) = (   0.1111111   0.3849002  -0.6123724), wk =   0.0041152
        k(  360) = (   0.1111111   0.3849002  -0.5443311), wk =   0.0041152
        k(  361) = (   0.1111111   0.3849002  -0.4762897), wk =   0.0041152
        k(  362) = (   0.1111111   0.3849002  -0.4082483), wk =   0.0041152
        k(  363) = (   0.1111111   0.3849002  -0.3402069), wk =   0.0041152
        k(  364) = (   0.1111111   0.3849002  -0.2721655), wk =   0.0041152
        k(  365) = (   0.1111111   0.4490502  -0.2268046), wk =   0.0041152
        k(  366) = (   0.1111111   0.4490502  -0.1587632), wk =   0.0041152
        k(  367) = (   0.1111111   0.4490502  -0.0907218), wk =   0.0041152
        k(  368) = (   0.1111111   0.4490502  -0.0226805), wk =   0.0041152
        k(  369) = (   0.1111111   0.4490502   0.0453609), wk =   0.0041152
        k(  370) = (   0.1111111   0.4490502   0.1134023), wk =   0.0041152
        k(  371) = (   0.1111111   0.4490502   0.1814437), wk =   0.0041152
        k(  372) = (   0.1111111   0.4490502   0.2494851), wk =   0.0041152
        k(  373) = (   0.1111111   0.4490502   0.3175264), wk =   0.0041152
        k(  374) = (   0.1111111   0.4490502  -0.8391770), wk =   0.0041152
        k(  375) = (   0.1111111   0.4490502  -0.7711357), wk =   0.0041152
        k(  376) = (   0.1111111   0.4490502  -0.7030943), wk =   0.0041152
        k(  377) = (   0.1111111   0.4490502  -0.6350529), wk =   0.0041152
        k(  378) = (   0.1111111   0.4490502  -0.5670115), wk =   0.0041152
        k(  379) = (   0.1111111   0.4490502  -0.4989701), wk =   0.0041152
        k(  380) = (   0.1111111   0.4490502  -0.4309288), wk =   0.0041152
        k(  381) = (   0.1111111   0.4490502  -0.3628874), wk =   0.0041152
        k(  382) = (   0.1111111   0.4490502  -0.2948460), wk =   0.0041152
        k(  383) = (   0.1111111  -0.6415003   0.1587632), wk =   0.0041152
        k(  384) = (   0.1111111  -0.6415003   0.2268046), wk =   0.0041152
        k(  385) = (   0.1111111  -0.6415003   0.2948460), wk =   0.0041152
        k(  386) = (   0.1111111  -0.6415003   0.3628874), wk =   0.0041152
        k(  387) = (   0.1111111  -0.6415003   0.4309288), wk =   0.0041152
        k(  388) = (   0.1111111  -0.6415003   0.4989701), wk =   0.0041152
        k(  389) = (   0.1111111  -0.6415003   0.5670115), wk =   0.0041152
        k(  390) = (   0.1111111  -0.6415003   0.6350529), wk =   0.0041152
        k(  391) = (   0.1111111  -0.6415003   0.7030943), wk =   0.0041152
        k(  392) = (   0.1111111  -0.6415003  -0.4536092), wk =   0.0041152
        k(  393) = (   0.1111111  -0.6415003  -0.3855678), wk =   0.0041152
        k(  394) = (   0.1111111  -0.6415003  -0.3175264), wk =   0.0041152
        k(  395) = (   0.1111111  -0.6415003  -0.2494851), wk =   0.0041152
        k(  396) = (   0.1111111  -0.6415003  -0.1814437), wk =   0.0041152
        k(  397) = (   0.1111111  -0.6415003  -0.1134023), wk =   0.0041152
        k(  398) = (   0.1111111  -0.6415003  -0.0453609), wk =   0.0041152
        k(  399) = (   0.1111111  -0.6415003   0.0226805), wk =   0.0041152
        k(  400) = (   0.1111111  -0.6415003   0.0907218), wk =   0.0041152
        k(  401) = (   0.1111111  -0.5773503   0.1360828), wk =   0.0041152
        k(  402) = (   0.1111111  -0.5773503   0.2041241), wk =   0.0020576
        k(  403) = (   0.1111111  -0.5773503   0.3402069), wk =   0.0041152
        k(  404) = (   0.1111111  -0.5773503   0.4082483), wk =   0.0041152
        k(  405) = (   0.1111111  -0.5773503   0.4762897), wk =   0.0041152
        k(  406) = (   0.1111111  -0.5773503   0.5443311), wk =   0.0041152
        k(  407) = (   0.1111111  -0.5773503   0.6123724), wk =   0.0041152
        k(  408) = (   0.1111111  -0.5773503   0.6804138), wk =   0.0041152
        k(  409) = (   0.1111111  -0.5773503  -0.4762897), wk =   0.0041152
        k(  410) = (   0.1111111  -0.5773503  -0.4082483), wk =   0.0020576
        k(  411) = (   0.1666667   0.2886751  -0.2041241), wk =   0.0041152
        k(  412) = (   0.1666667   0.2886751  -0.1360828), wk =   0.0041152
        k(  413) = (   0.1666667   0.2886751  -0.0680414), wk =   0.0041152
        k(  414) = (   0.1666667   0.2886751  -0.0000000), wk =   0.0020576
        k(  415) = (   0.1666667   0.2886751   0.2721655), wk =   0.0041152
        k(  416) = (   0.1666667   0.2886751   0.3402069), wk =   0.0041152
        k(  417) = (   0.1666667   0.2886751  -0.8164966), wk =   0.0041152
        k(  418) = (   0.1666667   0.2886751  -0.7484552), wk =   0.0041152
        k(  419) = (   0.1666667   0.2886751  -0.6804138), wk =   0.0041152
        k(  420) = (   0.1666667   0.2886751  -0.6123724), wk =   0.0020576
        k(  421) = (   0.1666667   0.3528252  -0.2268046), wk =   0.0041152
        k(  422) = (   0.1666667   0.3528252  -0.1587632), wk =   0.0041152
        k(  423) = (   0.1666667   0.3528252  -0.0907218), wk =   0.0041152
        k(  424) = (   0.1666667   0.3528252  -0.0226805), wk =   0.0041152
        k(  425) = (   0.1666667   0.3528252   0.0453609), wk =   0.0041152
        k(  426) = (   0.1666667   0.3528252   0.1134023), wk =   0.0041152
        k(  427) = (   0.1666667   0.3528252   0.1814437), wk =   0.0041152
        k(  428) = (   0.1666667   0.3528252   0.2494851), wk =   0.0041152
        k(  429) = (   0.1666667   0.3528252   0.3175264), wk =   0.0041152
        k(  430) = (   0.1666667   0.3528252  -0.8391770), wk =   0.0041152
        k(  431) = (   0.1666667   0.3528252  -0.7711357), wk =   0.0041152
        k(  432) = (   0.1666667   0.3528252  -0.7030943), wk =   0.0041152
        k(  433) = (   0.1666667   0.3528252  -0.6350529), wk =   0.0041152
        k(  434) = (   0.1666667   0.3528252  -0.5670115), wk =   0.0041152
        k(  435) = (   0.1666667   0.3528252  -0.4989701), wk =   0.0041152
        k(  436) = (   0.1666667   0.3528252  -0.4309288), wk =   0.0041152
        k(  437) = (   0.1666667   0.3528252  -0.3628874), wk =   0.0041152
        k(  438) = (   0.1666667   0.3528252  -0.2948460), wk =   0.0041152
        k(  439) = (   0.1666667   0.4169752  -0.2494851), wk =   0.0041152
        k(  440) = (   0.1666667   0.4169752  -0.1814437), wk =   0.0041152
        k(  441) = (   0.1666667   0.4169752  -0.1134023), wk =   0.0041152
        k(  442) = (   0.1666667   0.4169752  -0.0453609), wk =   0.0041152
        k(  443) = (   0.1666667   0.4169752   0.0226805), wk =   0.0041152
        k(  444) = (   0.1666667   0.4169752   0.0907218), wk =   0.0041152
        k(  445) = (   0.1666667   0.4169752   0.1587632), wk =   0.0041152
        k(  446) = (   0.1666667   0.4169752   0.2268046), wk =   0.0041152
        k(  447) = (   0.1666667   0.4169752   0.2948460), wk =   0.0041152
        k(  448) = (   0.1666667   0.4169752  -0.8618575), wk =   0.0041152
        k(  449) = (   0.1666667   0.4169752  -0.7938161), wk =   0.0041152
        k(  450) = (   0.1666667   0.4169752  -0.7257747), wk =   0.0041152
        k(  451) = (   0.1666667   0.4169752  -0.6577334), wk =   0.0041152
        k(  452) = (   0.1666667   0.4169752  -0.5896920), wk =   0.0041152
        k(  453) = (   0.1666667   0.4169752  -0.5216506), wk =   0.0041152
        k(  454) = (   0.1666667   0.4169752  -0.4536092), wk =   0.0041152
        k(  455) = (   0.1666667   0.4169752  -0.3855678), wk =   0.0041152
        k(  456) = (   0.1666667   0.4169752  -0.3175264), wk =   0.0041152
        k(  457) = (   0.1666667  -0.6735753   0.1360828), wk =   0.0041152
        k(  458) = (   0.1666667  -0.6735753   0.2041241), wk =   0.0041152
        k(  459) = (   0.1666667  -0.6735753   0.2721655), wk =   0.0041152
        k(  460) = (   0.1666667  -0.6735753   0.3402069), wk =   0.0041152
        k(  461) = (   0.1666667  -0.6735753   0.4082483), wk =   0.0041152
        k(  462) = (   0.1666667  -0.6735753   0.4762897), wk =   0.0041152
        k(  463) = (   0.1666667  -0.6735753   0.5443311), wk =   0.0041152
        k(  464) = (   0.1666667  -0.6735753   0.6123724), wk =   0.0041152
        k(  465) = (   0.1666667  -0.6735753   0.6804138), wk =   0.0041152
        k(  466) = (   0.1666667  -0.6735753  -0.4762897), wk =   0.0041152
        k(  467) = (   0.1666667  -0.6735753  -0.4082483), wk =   0.0041152
        k(  468) = (   0.1666667  -0.6735753  -0.3402069), wk =   0.0041152
        k(  469) = (   0.1666667  -0.6735753  -0.2721655), wk =   0.0041152
        k(  470) = (   0.1666667  -0.6735753  -0.2041241), wk =   0.0041152
        k(  471) = (   0.1666667  -0.6735753  -0.1360828), wk =   0.0041152
        k(  472) = (   0.1666667  -0.6735753  -0.0680414), wk =   0.0041152
        k(  473) = (   0.1666667  -0.6735753  -0.0000000), wk =   0.0041152
        k(  474) = (   0.1666667  -0.6735753   0.0680414), wk =   0.0041152
        k(  475) = (   0.1666667  -0.6094253   0.1134023), wk =   0.0041152
        k(  476) = (   0.1666667  -0.6094253   0.1814437), wk =   0.0041152
        k(  477) = (   0.1666667  -0.6094253   0.2494851), wk =   0.0041152
        k(  478) = (   0.1666667  -0.6094253   0.3175264), wk =   0.0041152
        k(  479) = (   0.1666667  -0.6094253   0.3855678), wk =   0.0041152
        k(  480) = (   0.1666667  -0.6094253   0.4536092), wk =   0.0041152
        k(  481) = (   0.1666667  -0.6094253   0.5216506), wk =   0.0041152
        k(  482) = (   0.1666667  -0.6094253   0.5896920), wk =   0.0041152
        k(  483) = (   0.1666667  -0.6094253   0.6577334), wk =   0.0041152
        k(  484) = (   0.1666667  -0.6094253  -0.4989701), wk =   0.0041152
        k(  485) = (   0.1666667  -0.6094253  -0.4309288), wk =   0.0041152
        k(  486) = (   0.1666667  -0.6094253  -0.3628874), wk =   0.0041152
        k(  487) = (   0.1666667  -0.6094253  -0.2948460), wk =   0.0041152
        k(  488) = (   0.1666667  -0.6094253  -0.2268046), wk =   0.0041152
        k(  489) = (   0.1666667  -0.6094253  -0.1587632), wk =   0.0041152
        k(  490) = (   0.1666667  -0.6094253  -0.0907218), wk =   0.0041152
        k(  491) = (   0.1666667  -0.6094253  -0.0226805), wk =   0.0041152
        k(  492) = (   0.1666667  -0.6094253   0.0453609), wk =   0.0041152
        k(  493) = (   0.2222222   0.3849002  -0.2721655), wk =   0.0041152
        k(  494) = (   0.2222222   0.3849002  -0.2041241), wk =   0.0041152
        k(  495) = (   0.2222222   0.3849002  -0.1360828), wk =   0.0041152
        k(  496) = (   0.2222222   0.3849002  -0.0680414), wk =   0.0041152
        k(  497) = (   0.2222222   0.3849002  -0.0000000), wk =   0.0020576
        k(  498) = (   0.2222222   0.3849002  -0.8845380), wk =   0.0041152
        k(  499) = (   0.2222222   0.3849002  -0.8164966), wk =   0.0041152
        k(  500) = (   0.2222222   0.3849002  -0.7484552), wk =   0.0041152
        k(  501) = (   0.2222222   0.3849002  -0.6804138), wk =   0.0041152
        k(  502) = (   0.2222222   0.3849002  -0.6123724), wk =   0.0020576
        k(  503) = (   0.2222222  -0.7056503   0.1134023), wk =   0.0041152
        k(  504) = (   0.2222222  -0.7056503   0.1814437), wk =   0.0041152
        k(  505) = (   0.2222222  -0.7056503   0.2494851), wk =   0.0041152
        k(  506) = (   0.2222222  -0.7056503   0.3175264), wk =   0.0041152
        k(  507) = (   0.2222222  -0.7056503   0.3855678), wk =   0.0041152
        k(  508) = (   0.2222222  -0.7056503   0.4536092), wk =   0.0041152
        k(  509) = (   0.2222222  -0.7056503   0.5216506), wk =   0.0041152
        k(  510) = (   0.2222222  -0.7056503   0.5896920), wk =   0.0041152
        k(  511) = (   0.2222222  -0.7056503   0.6577334), wk =   0.0041152
        k(  512) = (   0.2222222  -0.7056503  -0.4989701), wk =   0.0041152
        k(  513) = (   0.2222222  -0.7056503  -0.4309288), wk =   0.0041152
        k(  514) = (   0.2222222  -0.7056503  -0.3628874), wk =   0.0041152
        k(  515) = (   0.2222222  -0.7056503  -0.2948460), wk =   0.0041152
        k(  516) = (   0.2222222  -0.7056503  -0.2268046), wk =   0.0041152
        k(  517) = (   0.2222222  -0.7056503  -0.1587632), wk =   0.0041152
        k(  518) = (   0.2222222  -0.7056503  -0.0907218), wk =   0.0041152
        k(  519) = (   0.2222222  -0.7056503  -0.0226805), wk =   0.0041152
        k(  520) = (   0.2222222  -0.7056503   0.0453609), wk =   0.0041152
        k(  521) = (   0.2222222  -0.6415003   0.0907218), wk =   0.0041152
        k(  522) = (   0.2222222  -0.6415003   0.1587632), wk =   0.0041152
        k(  523) = (   0.2222222  -0.6415003   0.2268046), wk =   0.0041152
        k(  524) = (   0.2222222  -0.6415003   0.2948460), wk =   0.0041152
        k(  525) = (   0.2222222  -0.6415003   0.3628874), wk =   0.0041152
        k(  526) = (   0.2222222  -0.6415003   0.4309288), wk =   0.0041152
        k(  527) = (   0.2222222  -0.6415003   0.4989701), wk =   0.0041152
        k(  528) = (   0.2222222  -0.6415003   0.5670115), wk =   0.0041152
        k(  529) = (   0.2222222  -0.6415003   0.6350529), wk =   0.0041152
        k(  530) = (   0.2222222  -0.6415003  -0.5216506), wk =   0.0041152
        k(  531) = (   0.2222222  -0.6415003  -0.4536092), wk =   0.0041152
        k(  532) = (   0.2222222  -0.6415003  -0.3855678), wk =   0.0041152
        k(  533) = (   0.2222222  -0.6415003  -0.3175264), wk =   0.0041152
        k(  534) = (   0.2222222  -0.6415003  -0.2494851), wk =   0.0041152
        k(  535) = (   0.2222222  -0.6415003  -0.1814437), wk =   0.0041152
        k(  536) = (   0.2222222  -0.6415003  -0.1134023), wk =   0.0041152
        k(  537) = (   0.2222222  -0.6415003  -0.0453609), wk =   0.0041152
        k(  538) = (   0.2222222  -0.6415003   0.0226805), wk =   0.0041152
        k(  539) = (   0.2222222  -0.5773503   0.0680414), wk =   0.0041152
        k(  540) = (   0.2222222  -0.5773503   0.1360828), wk =   0.0041152
        k(  541) = (   0.2222222  -0.5773503   0.2041241), wk =   0.0020576
        k(  542) = (   0.2222222  -0.5773503   0.4082483), wk =   0.0041152
        k(  543) = (   0.2222222  -0.5773503   0.4762897), wk =   0.0041152
        k(  544) = (   0.2222222  -0.5773503   0.5443311), wk =   0.0041152
        k(  545) = (   0.2222222  -0.5773503   0.6123724), wk =   0.0041152
        k(  546) = (   0.2222222  -0.5773503  -0.5443311), wk =   0.0041152
        k(  547) = (   0.2222222  -0.5773503  -0.4762897), wk =   0.0041152
        k(  548) = (   0.2222222  -0.5773503  -0.4082483), wk =   0.0020576
        k(  549) = (   0.2777778  -0.6735753   0.0680414), wk =   0.0041152
        k(  550) = (   0.2777778  -0.6735753   0.1360828), wk =   0.0041152
        k(  551) = (   0.2777778  -0.6735753   0.2041241), wk =   0.0041152
        k(  552) = (   0.2777778  -0.6735753   0.2721655), wk =   0.0041152
        k(  553) = (   0.2777778  -0.6735753   0.3402069), wk =   0.0041152
        k(  554) = (   0.2777778  -0.6735753   0.4082483), wk =   0.0020576
        k(  555) = (   0.2777778  -0.6735753  -0.4082483), wk =   0.0041152
        k(  556) = (   0.2777778  -0.6735753  -0.3402069), wk =   0.0041152
        k(  557) = (   0.2777778  -0.6735753  -0.2721655), wk =   0.0041152
        k(  558) = (   0.2777778  -0.6735753  -0.2041241), wk =   0.0020576
        k(  559) = (   0.2777778  -0.6094253   0.0453609), wk =   0.0041152
        k(  560) = (   0.2777778  -0.6094253   0.1134023), wk =   0.0041152
        k(  561) = (   0.2777778  -0.6094253   0.1814437), wk =   0.0041152
        k(  562) = (   0.2777778  -0.6094253   0.2494851), wk =   0.0041152
        k(  563) = (   0.2777778  -0.6094253   0.3175264), wk =   0.0041152
        k(  564) = (   0.2777778  -0.6094253   0.3855678), wk =   0.0041152
        k(  565) = (   0.2777778  -0.6094253   0.4536092), wk =   0.0041152
        k(  566) = (   0.2777778  -0.6094253   0.5216506), wk =   0.0041152
        k(  567) = (   0.2777778  -0.6094253   0.5896920), wk =   0.0041152
        k(  568) = (   0.2777778  -0.6094253  -0.5670115), wk =   0.0041152
        k(  569) = (   0.2777778  -0.6094253  -0.4989701), wk =   0.0041152
        k(  570) = (   0.2777778  -0.6094253  -0.4309288), wk =   0.0041152
        k(  571) = (   0.2777778  -0.6094253  -0.3628874), wk =   0.0041152
        k(  572) = (   0.2777778  -0.6094253  -0.2948460), wk =   0.0041152
        k(  573) = (   0.2777778  -0.6094253  -0.2268046), wk =   0.0041152
        k(  574) = (   0.2777778  -0.6094253  -0.1587632), wk =   0.0041152
        k(  575) = (   0.2777778  -0.6094253  -0.0907218), wk =   0.0041152
        k(  576) = (   0.2777778  -0.6094253  -0.0226805), wk =   0.0041152
        k(  577) = (   0.3333333  -0.5773503   0.0000000), wk =   0.0020576
        k(  578) = (   0.3333333  -0.5773503   0.0680414), wk =   0.0041152
        k(  579) = (   0.3333333  -0.5773503   0.1360828), wk =   0.0041152
        k(  580) = (   0.3333333  -0.5773503   0.2041241), wk =   0.0020576

                       cryst. coord.
        k(    1) = (   0.0000000   0.0000000   0.0000000), wk =   0.0003429
        k(    2) = (   0.0000000   0.0000000   0.0555556), wk =   0.0006859
        k(    3) = (   0.0000000   0.0000000   0.1111111), wk =   0.0006859
        k(    4) = (   0.0000000   0.0000000   0.1666667), wk =   0.0006859
        k(    5) = (   0.0000000   0.0000000   0.2222222), wk =   0.0006859
        k(    6) = (   0.0000000   0.0000000   0.2777778), wk =   0.0006859
        k(    7) = (   0.0000000   0.0000000   0.3333333), wk =   0.0006859
        k(    8) = (   0.0000000   0.0000000   0.3888889), wk =   0.0006859
        k(    9) = (   0.0000000   0.0000000   0.4444444), wk =   0.0006859
        k(   10) = (   0.0000000   0.0000000  -0.5000000), wk =   0.0003429
        k(   11) = (   0.0000000   0.0555556  -0.0000000), wk =   0.0020576
        k(   12) = (   0.0000000   0.0555556   0.0555556), wk =   0.0020576
        k(   13) = (   0.0000000   0.0555556   0.1111111), wk =   0.0020576
        k(   14) = (   0.0000000   0.0555556   0.1666667), wk =   0.0020576
        k(   15) = (   0.0000000   0.0555556   0.2222222), wk =   0.0020576
        k(   16) = (   0.0000000   0.0555556   0.2777778), wk =   0.0020576
        k(   17) = (   0.0000000   0.0555556   0.3333333), wk =   0.0020576
        k(   18) = (   0.0000000   0.0555556   0.3888889), wk =   0.0020576
        k(   19) = (   0.0000000   0.0555556   0.4444444), wk =   0.0020576
        k(   20) = (   0.0000000   0.0555556  -0.5000000), wk =   0.0020576
        k(   21) = (   0.0000000   0.0555556  -0.4444444), wk =   0.0020576
        k(   22) = (   0.0000000   0.0555556  -0.3888889), wk =   0.0020576
        k(   23) = (   0.0000000   0.0555556  -0.3333333), wk =   0.0020576
        k(   24) = (   0.0000000   0.0555556  -0.2777778), wk =   0.0020576
        k(   25) = (   0.0000000   0.0555556  -0.2222222), wk =   0.0020576
        k(   26) = (   0.0000000   0.0555556  -0.1666667), wk =   0.0020576
        k(   27) = (   0.0000000   0.0555556  -0.1111111), wk =   0.0020576
        k(   28) = (   0.0000000   0.0555556  -0.0555556), wk =   0.0020576
        k(   29) = (   0.0000000   0.1111111  -0.0000000), wk =   0.0020576
        k(   30) = (   0.0000000   0.1111111   0.0555556), wk =   0.0020576
        k(   31) = (   0.0000000   0.1111111   0.1111111), wk =   0.0020576
        k(   32) = (   0.0000000   0.1111111   0.1666667), wk =   0.0020576
        k(   33) = (   0.0000000   0.1111111   0.2222222), wk =   0.0020576
        k(   34) = (   0.0000000   0.1111111   0.2777778), wk =   0.0020576
        k(   35) = (   0.0000000   0.1111111   0.3333333), wk =   0.0020576
        k(   36) = (   0.0000000   0.1111111   0.3888889), wk =   0.0020576
        k(   37) = (   0.0000000   0.1111111   0.4444444), wk =   0.0020576
        k(   38) = (   0.0000000   0.1111111  -0.5000000), wk =   0.0020576
        k(   39) = (   0.0000000   0.1111111  -0.4444444), wk =   0.0020576
        k(   40) = (   0.0000000   0.1111111  -0.3888889), wk =   0.0020576
        k(   41) = (   0.0000000   0.1111111  -0.3333333), wk =   0.0020576
        k(   42) = (   0.0000000   0.1111111  -0.2777778), wk =   0.0020576
        k(   43) = (   0.0000000   0.1111111  -0.2222222), wk =   0.0020576
        k(   44) = (   0.0000000   0.1111111  -0.1666667), wk =   0.0020576
        k(   45) = (   0.0000000   0.1111111  -0.1111111), wk =   0.0020576
        k(   46) = (   0.0000000   0.1111111  -0.0555556), wk =   0.0020576
        k(   47) = (   0.0000000   0.1666667  -0.0000000), wk =   0.0020576
        k(   48) = (   0.0000000   0.1666667   0.0555556), wk =   0.0020576
        k(   49) = (   0.0000000   0.1666667   0.1111111), wk =   0.0020576
        k(   50) = (   0.0000000   0.1666667   0.1666667), wk =   0.0020576
        k(   51) = (   0.0000000   0.1666667   0.2222222), wk =   0.0020576
        k(   52) = (   0.0000000   0.1666667   0.2777778), wk =   0.0020576
        k(   53) = (   0.0000000   0.1666667   0.3333333), wk =   0.0020576
        k(   54) = (   0.0000000   0.1666667   0.3888889), wk =   0.0020576
        k(   55) = (   0.0000000   0.1666667   0.4444444), wk =   0.0020576
        k(   56) = (   0.0000000   0.1666667  -0.5000000), wk =   0.0020576
        k(   57) = (   0.0000000   0.1666667  -0.4444444), wk =   0.0020576
        k(   58) = (   0.0000000   0.1666667  -0.3888889), wk =   0.0020576
        k(   59) = (   0.0000000   0.1666667  -0.3333333), wk =   0.0020576
        k(   60) = (   0.0000000   0.1666667  -0.2777778), wk =   0.0020576
        k(   61) = (   0.0000000   0.1666667  -0.2222222), wk =   0.0020576
        k(   62) = (   0.0000000   0.1666667  -0.1666667), wk =   0.0020576
        k(   63) = (   0.0000000   0.1666667  -0.1111111), wk =   0.0020576
        k(   64) = (   0.0000000   0.1666667  -0.0555556), wk =   0.0020576
        k(   65) = (   0.0000000   0.2222222  -0.0000000), wk =   0.0020576
        k(   66) = (   0.0000000   0.2222222   0.0555556), wk =   0.0020576
        k(   67) = (   0.0000000   0.2222222   0.1111111), wk =   0.0020576
        k(   68) = (   0.0000000   0.2222222   0.1666667), wk =   0.0020576
        k(   69) = (   0.0000000   0.2222222   0.2222222), wk =   0.0020576
        k(   70) = (   0.0000000   0.2222222   0.2777778), wk =   0.0020576
        k(   71) = (   0.0000000   0.2222222   0.3333333), wk =   0.0020576
        k(   72) = (   0.0000000   0.2222222   0.3888889), wk =   0.0020576
        k(   73) = (   0.0000000   0.2222222   0.4444444), wk =   0.0020576
        k(   74) = (   0.0000000   0.2222222  -0.5000000), wk =   0.0020576
        k(   75) = (   0.0000000   0.2222222  -0.4444444), wk =   0.0020576
        k(   76) = (   0.0000000   0.2222222  -0.3888889), wk =   0.0020576
        k(   77) = (   0.0000000   0.2222222  -0.3333333), wk =   0.0020576
        k(   78) = (   0.0000000   0.2222222  -0.2777778), wk =   0.0020576
        k(   79) = (   0.0000000   0.2222222  -0.2222222), wk =   0.0020576
        k(   80) = (   0.0000000   0.2222222  -0.1666667), wk =   0.0020576
        k(   81) = (   0.0000000   0.2222222  -0.1111111), wk =   0.0020576
        k(   82) = (   0.0000000   0.2222222  -0.0555556), wk =   0.0020576
        k(   83) = (   0.0000000   0.2777778  -0.0000000), wk =   0.0020576
        k(   84) = (   0.0000000   0.2777778   0.0555556), wk =   0.0020576
        k(   85) = (   0.0000000   0.2777778   0.1111111), wk =   0.0020576
        k(   86) = (   0.0000000   0.2777778   0.1666667), wk =   0.0020576
        k(   87) = (   0.0000000   0.2777778   0.2222222), wk =   0.0020576
        k(   88) = (   0.0000000   0.2777778   0.2777778), wk =   0.0020576
        k(   89) = (   0.0000000   0.2777778   0.3333333), wk =   0.0020576
        k(   90) = (   0.0000000   0.2777778   0.3888889), wk =   0.0020576
        k(   91) = (   0.0000000   0.2777778   0.4444444), wk =   0.0020576
        k(   92) = (   0.0000000   0.2777778  -0.5000000), wk =   0.0020576
        k(   93) = (   0.0000000   0.2777778  -0.4444444), wk =   0.0020576
        k(   94) = (   0.0000000   0.2777778  -0.3888889), wk =   0.0020576
        k(   95) = (   0.0000000   0.2777778  -0.3333333), wk =   0.0020576
        k(   96) = (   0.0000000   0.2777778  -0.2777778), wk =   0.0020576
        k(   97) = (   0.0000000   0.2777778  -0.2222222), wk =   0.0020576
        k(   98) = (   0.0000000   0.2777778  -0.1666667), wk =   0.0020576
        k(   99) = (   0.0000000   0.2777778  -0.1111111), wk =   0.0020576
        k(  100) = (   0.0000000   0.2777778  -0.0555556), wk =   0.0020576
        k(  101) = (   0.0000000   0.3333333  -0.0000000), wk =   0.0020576
        k(  102) = (   0.0000000   0.3333333   0.0555556), wk =   0.0020576
        k(  103) = (   0.0000000   0.3333333   0.1111111), wk =   0.0020576
        k(  104) = (   0.0000000   0.3333333   0.1666667), wk =   0.0020576
        k(  105) = (   0.0000000   0.3333333   0.2222222), wk =   0.0020576
        k(  106) = (   0.0000000   0.3333333   0.2777778), wk =   0.0020576
        k(  107) = (   0.0000000   0.3333333   0.3333333), wk =   0.0020576
        k(  108) = (   0.0000000   0.3333333   0.3888889), wk =   0.0020576
        k(  109) = (   0.0000000   0.3333333   0.4444444), wk =   0.0020576
        k(  110) = (   0.0000000   0.3333333  -0.5000000), wk =   0.0020576
        k(  111) = (   0.0000000   0.3333333  -0.4444444), wk =   0.0020576
        k(  112) = (   0.0000000   0.3333333  -0.3888889), wk =   0.0020576
        k(  113) = (   0.0000000   0.3333333  -0.3333333), wk =   0.0020576
        k(  114) = (   0.0000000   0.3333333  -0.2777778), wk =   0.0020576
        k(  115) = (   0.0000000   0.3333333  -0.2222222), wk =   0.0020576
        k(  116) = (   0.0000000   0.3333333  -0.1666667), wk =   0.0020576
        k(  117) = (   0.0000000   0.3333333  -0.1111111), wk =   0.0020576
        k(  118) = (   0.0000000   0.3333333  -0.0555556), wk =   0.0020576
        k(  119) = (   0.0000000   0.3888889  -0.0000000), wk =   0.0020576
        k(  120) = (   0.0000000   0.3888889   0.0555556), wk =   0.0020576
        k(  121) = (   0.0000000   0.3888889   0.1111111), wk =   0.0020576
        k(  122) = (   0.0000000   0.3888889   0.1666667), wk =   0.0020576
        k(  123) = (   0.0000000   0.3888889   0.2222222), wk =   0.0020576
        k(  124) = (   0.0000000   0.3888889   0.2777778), wk =   0.0020576
        k(  125) = (   0.0000000   0.3888889   0.3333333), wk =   0.0020576
        k(  126) = (   0.0000000   0.3888889   0.3888889), wk =   0.0020576
        k(  127) = (   0.0000000   0.3888889   0.4444444), wk =   0.0020576
        k(  128) = (   0.0000000   0.3888889  -0.5000000), wk =   0.0020576
        k(  129) = (   0.0000000   0.3888889  -0.4444444), wk =   0.0020576
        k(  130) = (   0.0000000   0.3888889  -0.3888889), wk =   0.0020576
        k(  131) = (   0.0000000   0.3888889  -0.3333333), wk =   0.0020576
        k(  132) = (   0.0000000   0.3888889  -0.2777778), wk =   0.0020576
        k(  133) = (   0.0000000   0.3888889  -0.2222222), wk =   0.0020576
        k(  134) = (   0.0000000   0.3888889  -0.1666667), wk =   0.0020576
        k(  135) = (   0.0000000   0.3888889  -0.1111111), wk =   0.0020576
        k(  136) = (   0.0000000   0.3888889  -0.0555556), wk =   0.0020576
        k(  137) = (   0.0000000   0.4444444  -0.0000000), wk =   0.0020576
        k(  138) = (   0.0000000   0.4444444   0.0555556), wk =   0.0020576
        k(  139) = (   0.0000000   0.4444444   0.1111111), wk =   0.0020576
        k(  140) = (   0.0000000   0.4444444   0.1666667), wk =   0.0020576
        k(  141) = (   0.0000000   0.4444444   0.2222222), wk =   0.0020576
        k(  142) = (   0.0000000   0.4444444   0.2777778), wk =   0.0020576
        k(  143) = (   0.0000000   0.4444444   0.3333333), wk =   0.0020576
        k(  144) = (   0.0000000   0.4444444   0.3888889), wk =   0.0020576
        k(  145) = (   0.0000000   0.4444444   0.4444444), wk =   0.0020576
        k(  146) = (   0.0000000   0.4444444  -0.5000000), wk =   0.0020576
        k(  147) = (   0.0000000   0.4444444  -0.4444444), wk =   0.0020576
        k(  148) = (   0.0000000   0.4444444  -0.3888889), wk =   0.0020576
        k(  149) = (   0.0000000   0.4444444  -0.3333333), wk =   0.0020576
        k(  150) = (   0.0000000   0.4444444  -0.2777778), wk =   0.0020576
        k(  151) = (   0.0000000   0.4444444  -0.2222222), wk =   0.0020576
        k(  152) = (   0.0000000   0.4444444  -0.1666667), wk =   0.0020576
        k(  153) = (   0.0000000   0.4444444  -0.1111111), wk =   0.0020576
        k(  154) = (   0.0000000   0.4444444  -0.0555556), wk =   0.0020576
        k(  155) = (   0.0000000  -0.5000000   0.0000000), wk =   0.0010288
        k(  156) = (   0.0000000  -0.5000000   0.0555556), wk =   0.0020576
        k(  157) = (   0.0000000  -0.5000000   0.1111111), wk =   0.0020576
        k(  158) = (   0.0000000  -0.5000000   0.1666667), wk =   0.0020576
        k(  159) = (   0.0000000  -0.5000000   0.2222222), wk =   0.0020576
        k(  160) = (   0.0000000  -0.5000000   0.2777778), wk =   0.0020576
        k(  161) = (   0.0000000  -0.5000000   0.3333333), wk =   0.0020576
        k(  162) = (   0.0000000  -0.5000000   0.3888889), wk =   0.0020576
        k(  163) = (   0.0000000  -0.5000000   0.4444444), wk =   0.0020576
        k(  164) = (   0.0000000  -0.5000000  -0.5000000), wk =   0.0010288
        k(  165) = (   0.0555556   0.1111111  -0.0000000), wk =   0.0041152
        k(  166) = (   0.0555556   0.1111111   0.0555556), wk =   0.0020576
        k(  167) = (   0.0555556   0.1111111   0.1666667), wk =   0.0041152
        k(  168) = (   0.0555556   0.1111111   0.2222222), wk =   0.0041152
        k(  169) = (   0.0555556   0.1111111   0.2777778), wk =   0.0041152
        k(  170) = (   0.0555556   0.1111111   0.3333333), wk =   0.0041152
        k(  171) = (   0.0555556   0.1111111   0.3888889), wk =   0.0041152
        k(  172) = (   0.0555556   0.1111111   0.4444444), wk =   0.0041152
        k(  173) = (   0.0555556   0.1111111  -0.5000000), wk =   0.0041152
        k(  174) = (   0.0555556   0.1111111  -0.4444444), wk =   0.0020576
        k(  175) = (   0.0555556   0.1666667   0.0000000), wk =   0.0041152
        k(  176) = (   0.0555556   0.1666667   0.0555556), wk =   0.0041152
        k(  177) = (   0.0555556   0.1666667   0.1111111), wk =   0.0041152
        k(  178) = (   0.0555556   0.1666667   0.1666667), wk =   0.0041152
        k(  179) = (   0.0555556   0.1666667   0.2222222), wk =   0.0041152
        k(  180) = (   0.0555556   0.1666667   0.2777778), wk =   0.0041152
        k(  181) = (   0.0555556   0.1666667   0.3333333), wk =   0.0041152
        k(  182) = (   0.0555556   0.1666667   0.3888889), wk =   0.0041152
        k(  183) = (   0.0555556   0.1666667   0.4444444), wk =   0.0041152
        k(  184) = (   0.0555556   0.1666667  -0.5000000), wk =   0.0041152
        k(  185) = (   0.0555556   0.1666667  -0.4444444), wk =   0.0041152
        k(  186) = (   0.0555556   0.1666667  -0.3888889), wk =   0.0041152
        k(  187) = (   0.0555556   0.1666667  -0.3333333), wk =   0.0041152
        k(  188) = (   0.0555556   0.1666667  -0.2777778), wk =   0.0041152
        k(  189) = (   0.0555556   0.1666667  -0.2222222), wk =   0.0041152
        k(  190) = (   0.0555556   0.1666667  -0.1666667), wk =   0.0041152
        k(  191) = (   0.0555556   0.1666667  -0.1111111), wk =   0.0041152
        k(  192) = (   0.0555556   0.1666667  -0.0555556), wk =   0.0041152
        k(  193) = (   0.0555556   0.2222222  -0.0000000), wk =   0.0041152
        k(  194) = (   0.0555556   0.2222222   0.0555556), wk =   0.0041152
        k(  195) = (   0.0555556   0.2222222   0.1111111), wk =   0.0041152
        k(  196) = (   0.0555556   0.2222222   0.1666667), wk =   0.0041152
        k(  197) = (   0.0555556   0.2222222   0.2222222), wk =   0.0041152
        k(  198) = (   0.0555556   0.2222222   0.2777778), wk =   0.0041152
        k(  199) = (   0.0555556   0.2222222   0.3333333), wk =   0.0041152
        k(  200) = (   0.0555556   0.2222222   0.3888889), wk =   0.0041152
        k(  201) = (   0.0555556   0.2222222   0.4444444), wk =   0.0041152
        k(  202) = (   0.0555556   0.2222222  -0.5000000), wk =   0.0041152
        k(  203) = (   0.0555556   0.2222222  -0.4444444), wk =   0.0041152
        k(  204) = (   0.0555556   0.2222222  -0.3888889), wk =   0.0041152
        k(  205) = (   0.0555556   0.2222222  -0.3333333), wk =   0.0041152
        k(  206) = (   0.0555556   0.2222222  -0.2777778), wk =   0.0041152
        k(  207) = (   0.0555556   0.2222222  -0.2222222), wk =   0.0041152
        k(  208) = (   0.0555556   0.2222222  -0.1666667), wk =   0.0041152
        k(  209) = (   0.0555556   0.2222222  -0.1111111), wk =   0.0041152
        k(  210) = (   0.0555556   0.2222222  -0.0555556), wk =   0.0041152
        k(  211) = (   0.0555556   0.2777778  -0.0000000), wk =   0.0041152
        k(  212) = (   0.0555556   0.2777778   0.0555556), wk =   0.0041152
        k(  213) = (   0.0555556   0.2777778   0.1111111), wk =   0.0041152
        k(  214) = (   0.0555556   0.2777778   0.1666667), wk =   0.0041152
        k(  215) = (   0.0555556   0.2777778   0.2222222), wk =   0.0041152
        k(  216) = (   0.0555556   0.2777778   0.2777778), wk =   0.0041152
        k(  217) = (   0.0555556   0.2777778   0.3333333), wk =   0.0041152
        k(  218) = (   0.0555556   0.2777778   0.3888889), wk =   0.0041152
        k(  219) = (   0.0555556   0.2777778   0.4444444), wk =   0.0041152
        k(  220) = (   0.0555556   0.2777778  -0.5000000), wk =   0.0041152
        k(  221) = (   0.0555556   0.2777778  -0.4444444), wk =   0.0041152
        k(  222) = (   0.0555556   0.2777778  -0.3888889), wk =   0.0041152
        k(  223) = (   0.0555556   0.2777778  -0.3333333), wk =   0.0041152
        k(  224) = (   0.0555556   0.2777778  -0.2777778), wk =   0.0041152
        k(  225) = (   0.0555556   0.2777778  -0.2222222), wk =   0.0041152
        k(  226) = (   0.0555556   0.2777778  -0.1666667), wk =   0.0041152
        k(  227) = (   0.0555556   0.2777778  -0.1111111), wk =   0.0041152
        k(  228) = (   0.0555556   0.2777778  -0.0555556), wk =   0.0041152
        k(  229) = (   0.0555556   0.3333333   0.0000000), wk =   0.0041152
        k(  230) = (   0.0555556   0.3333333   0.0555556), wk =   0.0041152
        k(  231) = (   0.0555556   0.3333333   0.1111111), wk =   0.0041152
        k(  232) = (   0.0555556   0.3333333   0.1666667), wk =   0.0041152
        k(  233) = (   0.0555556   0.3333333   0.2222222), wk =   0.0041152
        k(  234) = (   0.0555556   0.3333333   0.2777778), wk =   0.0041152
        k(  235) = (   0.0555556   0.3333333   0.3333333), wk =   0.0041152
        k(  236) = (   0.0555556   0.3333333   0.3888889), wk =   0.0041152
        k(  237) = (   0.0555556   0.3333333   0.4444444), wk =   0.0041152
        k(  238) = (   0.0555556   0.3333333  -0.5000000), wk =   0.0041152
        k(  239) = (   0.0555556   0.3333333  -0.4444444), wk =   0.0041152
        k(  240) = (   0.0555556   0.3333333  -0.3888889), wk =   0.0041152
        k(  241) = (   0.0555556   0.3333333  -0.3333333), wk =   0.0041152
        k(  242) = (   0.0555556   0.3333333  -0.2777778), wk =   0.0041152
        k(  243) = (   0.0555556   0.3333333  -0.2222222), wk =   0.0041152
        k(  244) = (   0.0555556   0.3333333  -0.1666667), wk =   0.0041152
        k(  245) = (   0.0555556   0.3333333  -0.1111111), wk =   0.0041152
        k(  246) = (   0.0555556   0.3333333  -0.0555556), wk =   0.0041152
        k(  247) = (   0.0555556   0.3888889  -0.0000000), wk =   0.0041152
        k(  248) = (   0.0555556   0.3888889   0.0555556), wk =   0.0041152
        k(  249) = (   0.0555556   0.3888889   0.1111111), wk =   0.0041152
        k(  250) = (   0.0555556   0.3888889   0.1666667), wk =   0.0041152
        k(  251) = (   0.0555556   0.3888889   0.2222222), wk =   0.0041152
        k(  252) = (   0.0555556   0.3888889   0.2777778), wk =   0.0041152
        k(  253) = (   0.0555556   0.3888889   0.3333333), wk =   0.0041152
        k(  254) = (   0.0555556   0.3888889   0.3888889), wk =   0.0041152
        k(  255) = (   0.0555556   0.3888889   0.4444444), wk =   0.0041152
        k(  256) = (   0.0555556   0.3888889  -0.5000000), wk =   0.0041152
        k(  257) = (   0.0555556   0.3888889  -0.4444444), wk =   0.0041152
        k(  258) = (   0.0555556   0.3888889  -0.3888889), wk =   0.0041152
        k(  259) = (   0.0555556   0.3888889  -0.3333333), wk =   0.0041152
        k(  260) = (   0.0555556   0.3888889  -0.2777778), wk =   0.0041152
        k(  261) = (   0.0555556   0.3888889  -0.2222222), wk =   0.0041152
        k(  262) = (   0.0555556   0.3888889  -0.1666667), wk =   0.0041152
        k(  263) = (   0.0555556   0.3888889  -0.1111111), wk =   0.0041152
        k(  264) = (   0.0555556   0.3888889  -0.0555556), wk =   0.0041152
        k(  265) = (   0.0555556   0.4444444  -0.0000000), wk =   0.0041152
        k(  266) = (   0.0555556   0.4444444   0.0555556), wk =   0.0041152
        k(  267) = (   0.0555556   0.4444444   0.1111111), wk =   0.0041152
        k(  268) = (   0.0555556   0.4444444   0.1666667), wk =   0.0041152
        k(  269) = (   0.0555556   0.4444444   0.2222222), wk =   0.0041152
        k(  270) = (   0.0555556   0.4444444   0.2777778), wk =   0.0041152
        k(  271) = (   0.0555556   0.4444444   0.3333333), wk =   0.0041152
        k(  272) = (   0.0555556   0.4444444   0.3888889), wk =   0.0041152
        k(  273) = (   0.0555556   0.4444444   0.4444444), wk =   0.0041152
        k(  274) = (   0.0555556   0.4444444  -0.5000000), wk =   0.0041152
        k(  275) = (   0.0555556   0.4444444  -0.4444444), wk =   0.0041152
        k(  276) = (   0.0555556   0.4444444  -0.3888889), wk =   0.0041152
        k(  277) = (   0.0555556   0.4444444  -0.3333333), wk =   0.0041152
        k(  278) = (   0.0555556   0.4444444  -0.2777778), wk =   0.0041152
        k(  279) = (   0.0555556   0.4444444  -0.2222222), wk =   0.0041152
        k(  280) = (   0.0555556   0.4444444  -0.1666667), wk =   0.0041152
        k(  281) = (   0.0555556   0.4444444  -0.1111111), wk =   0.0041152
        k(  282) = (   0.0555556   0.4444444  -0.0555556), wk =   0.0041152
        k(  283) = (   0.0555556  -0.5000000   0.0000000), wk =   0.0041152
        k(  284) = (   0.0555556  -0.5000000   0.0555556), wk =   0.0041152
        k(  285) = (   0.0555556  -0.5000000   0.1111111), wk =   0.0041152
        k(  286) = (   0.0555556  -0.5000000   0.1666667), wk =   0.0041152
        k(  287) = (   0.0555556  -0.5000000   0.2222222), wk =   0.0041152
        k(  288) = (   0.0555556  -0.5000000   0.2777778), wk =   0.0041152
        k(  289) = (   0.0555556  -0.5000000   0.3333333), wk =   0.0041152
        k(  290) = (   0.0555556  -0.5000000   0.3888889), wk =   0.0041152
        k(  291) = (   0.0555556  -0.5000000   0.4444444), wk =   0.0041152
        k(  292) = (   0.0555556  -0.5000000  -0.5000000), wk =   0.0041152
        k(  293) = (   0.0555556  -0.5000000  -0.4444444), wk =   0.0041152
        k(  294) = (   0.0555556  -0.5000000  -0.3888889), wk =   0.0041152
        k(  295) = (   0.0555556  -0.5000000  -0.3333333), wk =   0.0041152
        k(  296) = (   0.0555556  -0.5000000  -0.2777778), wk =   0.0041152
        k(  297) = (   0.0555556  -0.5000000  -0.2222222), wk =   0.0041152
        k(  298) = (   0.0555556  -0.5000000  -0.1666667), wk =   0.0041152
        k(  299) = (   0.0555556  -0.5000000  -0.1111111), wk =   0.0041152
        k(  300) = (   0.0555556  -0.5000000  -0.0555556), wk =   0.0041152
        k(  301) = (   0.1111111   0.2222222  -0.0000000), wk =   0.0041152
        k(  302) = (   0.1111111   0.2222222   0.0555556), wk =   0.0041152
        k(  303) = (   0.1111111   0.2222222   0.1111111), wk =   0.0020576
        k(  304) = (   0.1111111   0.2222222   0.2777778), wk =   0.0041152
        k(  305) = (   0.1111111   0.2222222   0.3333333), wk =   0.0041152
        k(  306) = (   0.1111111   0.2222222   0.3888889), wk =   0.0041152
        k(  307) = (   0.1111111   0.2222222   0.4444444), wk =   0.0041152
        k(  308) = (   0.1111111   0.2222222  -0.5000000), wk =   0.0041152
        k(  309) = (   0.1111111   0.2222222  -0.4444444), wk =   0.0041152
        k(  310) = (   0.1111111   0.2222222  -0.3888889), wk =   0.0020576
        k(  311) = (   0.1111111   0.2777778  -0.0000000), wk =   0.0041152
        k(  312) = (   0.1111111   0.2777778   0.0555556), wk =   0.0041152
        k(  313) = (   0.1111111   0.2777778   0.1111111), wk =   0.0041152
        k(  314) = (   0.1111111   0.2777778   0.1666667), wk =   0.0041152
        k(  315) = (   0.1111111   0.2777778   0.2222222), wk =   0.0041152
        k(  316) = (   0.1111111   0.2777778   0.2777778), wk =   0.0041152
        k(  317) = (   0.1111111   0.2777778   0.3333333), wk =   0.0041152
        k(  318) = (   0.1111111   0.2777778   0.3888889), wk =   0.0041152
        k(  319) = (   0.1111111   0.2777778   0.4444444), wk =   0.0041152
        k(  320) = (   0.1111111   0.2777778  -0.5000000), wk =   0.0041152
        k(  321) = (   0.1111111   0.2777778  -0.4444444), wk =   0.0041152
        k(  322) = (   0.1111111   0.2777778  -0.3888889), wk =   0.0041152
        k(  323) = (   0.1111111   0.2777778  -0.3333333), wk =   0.0041152
        k(  324) = (   0.1111111   0.2777778  -0.2777778), wk =   0.0041152
        k(  325) = (   0.1111111   0.2777778  -0.2222222), wk =   0.0041152
        k(  326) = (   0.1111111   0.2777778  -0.1666667), wk =   0.0041152
        k(  327) = (   0.1111111   0.2777778  -0.1111111), wk =   0.0041152
        k(  328) = (   0.1111111   0.2777778  -0.0555556), wk =   0.0041152
        k(  329) = (   0.1111111   0.3333333   0.0000000), wk =   0.0041152
        k(  330) = (   0.1111111   0.3333333   0.0555556), wk =   0.0041152
        k(  331) = (   0.1111111   0.3333333   0.1111111), wk =   0.0041152
        k(  332) = (   0.1111111   0.3333333   0.1666667), wk =   0.0041152
        k(  333) = (   0.1111111   0.3333333   0.2222222), wk =   0.0041152
        k(  334) = (   0.1111111   0.3333333   0.2777778), wk =   0.0041152
        k(  335) = (   0.1111111   0.3333333   0.3333333), wk =   0.0041152
        k(  336) = (   0.1111111   0.3333333   0.3888889), wk =   0.0041152
        k(  337) = (   0.1111111   0.3333333   0.4444444), wk =   0.0041152
        k(  338) = (   0.1111111   0.3333333  -0.5000000), wk =   0.0041152
        k(  339) = (   0.1111111   0.3333333  -0.4444444), wk =   0.0041152
        k(  340) = (   0.1111111   0.3333333  -0.3888889), wk =   0.0041152
        k(  341) = (   0.1111111   0.3333333  -0.3333333), wk =   0.0041152
        k(  342) = (   0.1111111   0.3333333  -0.2777778), wk =   0.0041152
        k(  343) = (   0.1111111   0.3333333  -0.2222222), wk =   0.0041152
        k(  344) = (   0.1111111   0.3333333  -0.1666667), wk =   0.0041152
        k(  345) = (   0.1111111   0.3333333  -0.1111111), wk =   0.0041152
        k(  346) = (   0.1111111   0.3333333  -0.0555556), wk =   0.0041152
        k(  347) = (   0.1111111   0.3888889  -0.0000000), wk =   0.0041152
        k(  348) = (   0.1111111   0.3888889   0.0555556), wk =   0.0041152
        k(  349) = (   0.1111111   0.3888889   0.1111111), wk =   0.0041152
        k(  350) = (   0.1111111   0.3888889   0.1666667), wk =   0.0041152
[...]
     1.0000   1.0000   1.0000   1.0000   1.0000   1.0000   1.0000   1.0000
     0.4276   0.0002   0.0000   0.0000   0.0000   0.0000   0.0000   0.0000
     0.0000   0.0000   0.0000   0.0000   0.0000   0.0000   0.0000   0.0000

          k = 0.2778-0.6736 0.1361 (  2540 PWs)   bands (ev):

   -33.6814 -12.7475 -12.3768 -12.2108   7.8211  12.9159  14.2166  14.5984
    18.6945  20.8161  21.7479  24.4397  25.3811  29.0487  32.0234  32.8429
    34.5295  39.8224  41.1095  43.7558  45.8662  46.6235  48.6241  50.8424

     occupation numbers 
     1.0000   1.0000   1.0000   1.0000   1.0000   1.0000   1.0000   1.0000
     0.3394   0.0002   0.0000   0.0000   0.0000   0.0000   0.0000   0.0000
     0.0000   0.0000   0.0000   0.0000   0.0000   0.0000   0.0000   0.0000

          k = 0.2778-0.6736 0.2041 (  2540 PWs)   bands (ev):

   -33.6864 -12.7429 -12.3586 -12.1981   7.9422  12.7429  14.1516  14.4181
    18.9760  20.7210  21.7001  24.1552  25.8211  28.8870  32.3642  32.4652
    34.6457  39.5271  41.5458  43.7865  45.6523  46.8030  47.7716  49.8010

     occupation numbers 
     1.0000   1.0000   1.0000   1.0000   1.0000   1.0000   1.0000   1.0000
     0.1544   0.0003   0.0000   0.0000   0.0000   0.0000   0.0000   0.0000
     0.0000   0.0000   0.0000   0.0000   0.0000   0.0000   0.0000   0.0000

          k = 0.2778-0.6736 0.2722 (  2536 PWs)   bands (ev):

   -33.6906 -12.7200 -12.3829 -12.1683   8.0583  12.5778  14.0859  14.2917
    19.3082  20.6171  21.6164  23.7924  26.3121  28.7840  31.7688  32.8439
    35.1971  38.9598  41.6704  43.8724  45.8344  46.8468  47.4135  48.8116

     occupation numbers 
     1.0000   1.0000   1.0000   1.0000   1.0000   1.0000   1.0000   1.0000
     0.0511   0.0004   0.0000   0.0000   0.0000   0.0000   0.0000   0.0000
     0.0000   0.0000   0.0000   0.0000   0.0000   0.0000   0.0000   0.0000

          k = 0.2778-0.6736 0.3402 (  2541 PWs)   bands (ev):

   -33.6933 -12.6895 -12.4224 -12.1412   8.1435  12.4575  13.9840  14.2807
    19.5424  20.5682  21.5770  23.4513  26.7635  28.6829  31.2335  33.1780
    35.9120  38.2552  41.7184  43.7468  46.2497  46.4819  47.7114  48.2185

     occupation numbers 
     1.0000   1.0000   1.0000   1.0000   1.0000   1.0000   1.0000   1.0000
     0.0223   0.0005   0.0000   0.0000   0.0000   0.0000   0.0000   0.0000
     0.0000   0.0000   0.0000   0.0000   0.0000   0.0000   0.0000   0.0000

          k = 0.2778-0.6736 0.4082 (  2546 PWs)   bands (ev):

   -33.6942 -12.6736 -12.4424 -12.1308   8.1750  12.4136  13.9384  14.2901
    19.6145  20.5640  21.5844  23.2982  26.9673  28.6233  31.0253  33.3023
    36.3668  37.8083  41.7441  43.6381  46.3460  46.5278  47.5623  48.2697

     occupation numbers 
     1.0000   1.0000   1.0000   1.0000   1.0000   1.0000   1.0000   1.0000
     0.0172   0.0005   0.0000   0.0000   0.0000   0.0000   0.0000   0.0000
     0.0000   0.0000   0.0000   0.0000   0.0000   0.0000   0.0000   0.0000

          k = 0.2778-0.6736-0.4082 (  2551 PWs)   bands (ev):

   -33.6709 -12.6939 -12.4850 -12.2323   7.6357  13.2595  14.3840  14.7428
    18.7366  20.7225  21.7570  24.4456  24.6545  29.9402  31.7258  32.5575
    35.7037  39.3011  39.6706  44.1108  46.6819  47.3553  49.6161  50.4717

     occupation numbers 
     1.0000   1.0000   1.0000   1.0000   1.0000   1.0000   1.0000   1.0000
     0.3056   0.0003   0.0000   0.0000   0.0000   0.0000   0.0000   0.0000
     0.0000   0.0000   0.0000   0.0000   0.0000   0.0000   0.0000   0.0000

          k = 0.2778-0.6736-0.3402 (  2546 PWs)   bands (ev):

   -33.6668 -12.6443 -12.5333 -12.2649   7.5840  13.4647  14.4075  14.6476
    19.0998  20.5601  21.7380  24.2045  24.3376  30.6857  31.7015  32.4323
    36.2097  38.5290  39.4355  43.7018  47.0611  48.0301  49.6230  50.4309

     occupation numbers 
     1.0000   1.0000   1.0000   1.0000   1.0000   1.0000   1.0000   1.0000
     0.1038   0.0005   0.0000   0.0000   0.0000   0.0000   0.0000   0.0000
     0.0000   0.0000   0.0000   0.0000   0.0000   0.0000   0.0000   0.0000

          k = 0.2778-0.6736-0.2722 (  2536 PWs)   bands (ev):

   -33.6641 -12.5996 -12.5600 -12.3037   7.5563  13.6850  14.3808  14.4951
    19.5770  20.3507  21.6716  24.0000  24.0859  31.3162  31.7118  32.4873
    36.1012  38.4585  39.1731  43.0985  47.2682  48.3526  49.9723  50.3157

     occupation numbers 
     1.0000   1.0000   1.0000   1.0000   1.0000   1.0000   1.0000   1.0000
     0.0197   0.0012   0.0000   0.0000   0.0000   0.0000   0.0000   0.0000
     0.0000   0.0000   0.0000   0.0000   0.0000   0.0000   0.0000   0.0000

          k = 0.2778-0.6736-0.2041 (  2534 PWs)   bands (ev):

   -33.6631 -12.5909 -12.5560 -12.3235   7.5478  13.8116  14.3195  14.4353
    20.0203  20.0374  21.6265  23.9288  23.9839  31.4548  31.8173  32.5904
    35.8585  38.7701  38.9015  42.8118  47.3226  48.4153  50.0709  50.3699

     occupation numbers 
     1.0000   1.0000   1.0000   1.0000   1.0000   1.0000   1.0000   1.0000
     0.0039   0.0037   0.0000   0.0000   0.0000   0.0000   0.0000   0.0000
     0.0000   0.0000   0.0000   0.0000   0.0000   0.0000   0.0000   0.0000

          k = 0.2778-0.6094 0.0454 (  2547 PWs)   bands (ev):

   -33.6764 -12.7068 -12.4752 -12.1914   7.9157  12.8117  14.3052  14.3786
    19.2617  20.4581  21.7129  24.4255  25.5504  29.3590  31.5344  32.6780
    35.4437  39.1898  40.3198  44.4723  46.2295  46.6318  49.2521  50.4181

     occupation numbers 
     1.0000   1.0000   1.0000   1.0000   1.0000   1.0000   1.0000   1.0000
     0.0601   0.0008   0.0000   0.0000   0.0000   0.0000   0.0000   0.0000
     0.0000   0.0000   0.0000   0.0000   0.0000   0.0000   0.0000   0.0000

          k = 0.2778-0.6094 0.1134 (  2543 PWs)   bands (ev):

   -33.6791 -12.7436 -12.4159 -12.1940   7.9878  12.7031  14.2266  14.3205
    19.3248  20.4613  21.6806  24.8267  25.4372  28.9252  31.9518  32.7196
    34.7265  40.0446  40.3613  44.1684  45.8009  46.6669  48.7278  51.0223

     occupation numbers 
     1.0000   1.0000   1.0000   1.0000   1.0000   1.0000   1.0000   1.0000
     0.0482   0.0008   0.0000   0.0000   0.0000   0.0000   0.0000   0.0000
     0.0000   0.0000   0.0000   0.0000   0.0000   0.0000   0.0000   0.0000

          k = 0.2778-0.6094 0.1814 (  2545 PWs)   bands (ev):

   -33.6813 -12.7583 -12.3796 -12.1998   8.0507  12.6184  14.1610  14.2613
    19.5222  20.3301  21.6837  24.9324  25.4525  28.7335  32.2351  32.7587
    34.3220  40.1999  40.6286  44.0222  45.5015  47.0987  47.8667  50.9660

     occupation numbers 
     1.0000   1.0000   1.0000   1.0000   1.0000   1.0000   1.0000   1.0000
     0.0239   0.0013   0.0000   0.0000   0.0000   0.0000   0.0000   0.0000
     0.0000   0.0000   0.0000   0.0000   0.0000   0.0000   0.0000   0.0000

          k = 0.2778-0.6094 0.2495 (  2540 PWs)   bands (ev):

   -33.6827 -12.7495 -12.3897 -12.1888   8.0943  12.5567  14.1281  14.2284
    19.7751  20.1606  21.6474  24.5752  25.8584  28.7190  31.9895  32.8655
    34.5593  39.7532  40.8730  44.2152  45.4770  47.0474  47.7493  50.1036

     occupation numbers 
     1.0000   1.0000   1.0000   1.0000   1.0000   1.0000   1.0000   1.0000
     0.0096   0.0023   0.0000   0.0000   0.0000   0.0000   0.0000   0.0000
     0.0000   0.0000   0.0000   0.0000   0.0000   0.0000   0.0000   0.0000

          k = 0.2778-0.6094 0.3175 (  2546 PWs)   bands (ev):

   -33.6832 -12.7199 -12.4357 -12.1696   8.1082  12.5333  14.1067  14.2511
    19.9470  20.0536  21.6213  24.1548  26.2409  28.8669  31.4530  32.9885
    35.2318  39.0436  40.9240  44.5193  45.7311  46.5361  48.3299  49.3021

     occupation numbers 
     1.0000   1.0000   1.0000   1.0000   1.0000   1.0000   1.0000   1.0000
     0.0051   0.0035   0.0000   0.0000   0.0000   0.0000   0.0000   0.0000
     0.0000   0.0000   0.0000   0.0000   0.0000   0.0000   0.0000   0.0000

          k = 0.2778-0.6094 0.3856 (  2545 PWs)   bands (ev):

   -33.6828 -12.6797 -12.4879 -12.1620   8.0854  12.5678  14.1146  14.2892
    19.9645  20.0307  21.6876  23.7826  26.4007  29.1977  31.0093  33.0398
    36.0068  38.2254  40.9011  44.6441  46.2241  46.4392  48.1227  49.1282

     occupation numbers 
     1.0000   1.0000   1.0000   1.0000   1.0000   1.0000   1.0000   1.0000
     0.0048   0.0038   0.0000   0.0000   0.0000   0.0000   0.0000   0.0000
     0.0000   0.0000   0.0000   0.0000   0.0000   0.0000   0.0000   0.0000

          k = 0.2778-0.6094 0.4536 (  2539 PWs)   bands (ev):

   -33.6813 -12.6568 -12.5098 -12.1736   8.0255  12.6709  14.1676  14.2993
    19.9249  20.0340  21.7534  23.5952  26.2560  29.5565  30.9309  32.9927
    36.3926  37.7781  40.8297  44.6217  46.5562  46.7279  47.6872  49.0236

     occupation numbers 
     1.0000   1.0000   1.0000   1.0000   1.0000   1.0000   1.0000   1.0000
     0.0056   0.0037   0.0000   0.0000   0.0000   0.0000   0.0000   0.0000
     0.0000   0.0000   0.0000   0.0000   0.0000   0.0000   0.0000   0.0000

          k = 0.2778-0.6094 0.5217 (  2541 PWs)   bands (ev):

   -33.6792 -12.6737 -12.4803 -12.2015   7.9353  12.8352  14.2412  14.3016
    19.7239  20.1902  21.7284  23.6717  25.8928  29.6665  31.3931  32.8378
    35.8652  38.2717  40.6938  44.4463  46.4837  47.0563  47.8675  48.8970

     occupation numbers 
     1.0000   1.0000   1.0000   1.0000   1.0000   1.0000   1.0000   1.0000
     0.0116   0.0021   0.0000   0.0000   0.0000   0.0000   0.0000   0.0000
     0.0000   0.0000   0.0000   0.0000   0.0000   0.0000   0.0000   0.0000

          k = 0.2778-0.6094 0.5897 (  2534 PWs)   bands (ev):

   -33.6765 -12.6972 -12.4445 -12.2321   7.8283  13.0238  14.2426  14.4200
    19.4143  20.4020  21.6951  23.9161  25.4465  29.6709  32.0433  32.5778
    35.2941  38.9361  40.4484  44.1241  46.3059  47.6867  47.8139  49.4949

     occupation numbers 
     1.0000   1.0000   1.0000   1.0000   1.0000   1.0000   1.0000   1.0000
     0.0352   0.0010   0.0000   0.0000   0.0000   0.0000   0.0000   0.0000
     0.0000   0.0000   0.0000   0.0000   0.0000   0.0000   0.0000   0.0000

          k = 0.2778-0.6094-0.5670 (  2541 PWs)   bands (ev):

   -33.6736 -12.7056 -12.4453 -12.2421   7.7225  13.1746  14.2881  14.5802
    19.0467  20.6056  21.7047  24.2066  25.0167  29.7371  32.1656  32.4994
    35.2082  39.4234  40.0051  43.9534  46.3626  47.4913  48.7148  50.2911

     occupation numbers 
     1.0000   1.0000   1.0000   1.0000   1.0000   1.0000   1.0000   1.0000
     0.1235   0.0005   0.0000   0.0000   0.0000   0.0000   0.0000   0.0000
     0.0000   0.0000   0.0000   0.0000   0.0000   0.0000   0.0000   0.0000

          k = 0.2778-0.6094-0.4990 (  2551 PWs)   bands (ev):

   -33.6709 -12.6939 -12.4850 -12.2323   7.6357  13.2595  14.3840  14.7428
    18.7366  20.7225  21.7570  24.4456  24.6545  29.9402  31.7258  32.5575
    35.7037  39.3011  39.6706  44.1108  46.6819  47.3553  49.6161  50.4717

     occupation numbers 
     1.0000   1.0000   1.0000   1.0000   1.0000   1.0000   1.0000   1.0000
     0.3056   0.0003   0.0000   0.0000   0.0000   0.0000   0.0000   0.0000
     0.0000   0.0000   0.0000   0.0000   0.0000   0.0000   0.0000   0.0000

          k = 0.2778-0.6094-0.4309 (  2553 PWs)   bands (ev):

   -33.6687 -12.6655 -12.5336 -12.2276   7.5812  13.3176  14.4580  14.8392
    18.6121  20.7309  21.8233  24.3633  24.5652  30.3258  31.3112  32.5002
    36.4343  38.4792  39.7076  44.3150  47.0572  47.4508  49.7257  50.3690

     occupation numbers 
     1.0000   1.0000   1.0000   1.0000   1.0000   1.0000   1.0000   1.0000
     0.4102   0.0003   0.0000   0.0000   0.0000   0.0000   0.0000   0.0000
     0.0000   0.0000   0.0000   0.0000   0.0000   0.0000   0.0000   0.0000

          k = 0.2778-0.6094-0.3629 (  2554 PWs)   bands (ev):

   -33.6673 -12.6396 -12.5584 -12.2396   7.5647  13.3881  14.4685  14.7931
    18.7492  20.6767  21.8219  24.2264  24.4867  30.7483  31.1576  32.4549
    36.7946  38.0226  39.6252  44.1413  47.1466  47.7959  49.5276  50.8607

     occupation numbers 
     1.0000   1.0000   1.0000   1.0000   1.0000   1.0000   1.0000   1.0000
     0.2959   0.0004   0.0000   0.0000   0.0000   0.0000   0.0000   0.0000
     0.0000   0.0000   0.0000   0.0000   0.0000   0.0000   0.0000   0.0000

          k = 0.2778-0.6094-0.2948 (  2546 PWs)   bands (ev):

   -33.6668 -12.6443 -12.5333 -12.2649   7.5840  13.4647  14.4075  14.6476
    19.0998  20.5601  21.7380  24.2045  24.3376  30.6857  31.7015  32.4323
    36.2097  38.5290  39.4355  43.7018  47.0611  48.0301  49.6230  50.4309

     occupation numbers 
     1.0000   1.0000   1.0000   1.0000   1.0000   1.0000   1.0000   1.0000
     0.1038   0.0005   0.0000   0.0000   0.0000   0.0000   0.0000   0.0000
     0.0000   0.0000   0.0000   0.0000   0.0000   0.0000   0.0000   0.0000

          k = 0.2778-0.6094-0.2268 (  2535 PWs)   bands (ev):

   -33.6673 -12.6487 -12.5077 -12.2838   7.6308  13.4775  14.3111  14.5327
    19.5273  20.3228  21.6764  24.0089  24.4950  30.6278  32.0580  32.4943
    35.7036  38.9887  39.2344  43.4684  46.9914  48.1367  49.2069  50.1898

     occupation numbers 
     1.0000   1.0000   1.0000   1.0000   1.0000   1.0000   1.0000   1.0000
     0.0235   0.0013   0.0000   0.0000   0.0000   0.0000   0.0000   0.0000
     0.0000   0.0000   0.0000   0.0000   0.0000   0.0000   0.0000   0.0000

          k = 0.2778-0.6094-0.1588 (  2536 PWs)   bands (ev):

   -33.6687 -12.6354 -12.5249 -12.2704   7.6946  13.3497  14.3001  14.4725
    19.8969  19.9765  21.7101  23.8491  24.8033  30.6710  31.7023  32.6474
    35.8289  38.4945  39.6340  43.6861  46.9750  47.9288  48.9982  49.8083

     occupation numbers 
     1.0000   1.0000   1.0000   1.0000   1.0000   1.0000   1.0000   1.0000
     0.0062   0.0046   0.0000   0.0000   0.0000   0.0000   0.0000   0.0000
     0.0000   0.0000   0.0000   0.0000   0.0000   0.0000   0.0000   0.0000

          k = 0.2778-0.6094-0.0907 (  2537 PWs)   bands (ev):

   -33.6709 -12.6151 -12.5642 -12.2357   7.7663  13.1465  14.3405  14.4464
    19.6234  20.1527  21.7817  23.8493  25.1548  30.7000  31.0809  32.6721
    36.3042  38.0097  39.9428  44.1656  46.8734  47.5348  48.9489  49.7269

     occupation numbers 
     1.0000   1.0000   1.0000   1.0000   1.0000   1.0000   1.0000   1.0000
     0.0166   0.0024   0.0000   0.0000   0.0000   0.0000   0.0000   0.0000
     0.0000   0.0000   0.0000   0.0000   0.0000   0.0000   0.0000   0.0000

          k = 0.2778-0.6094-0.0227 (  2543 PWs)   bands (ev):

   -33.6736 -12.6545 -12.5351 -12.2054   7.8408  12.9576  14.3460  14.4263
    19.3653  20.3335  21.7807  24.0604  25.4428  30.0379  31.1797  32.6661
    36.1449  38.3146  40.1682  44.5139  46.5998  47.0476  49.0881  50.0291

     occupation numbers 
     1.0000   1.0000   1.0000   1.0000   1.0000   1.0000   1.0000   1.0000
     0.0418   0.0012   0.0000   0.0000   0.0000   0.0000   0.0000   0.0000
     0.0000   0.0000   0.0000   0.0000   0.0000   0.0000   0.0000   0.0000

          k = 0.3333-0.5774 0.0000 (  2556 PWs)   bands (ev):

   -33.6736 -12.6171 -12.5816 -12.1963   7.8394  12.9426  14.3713  14.4378
    19.2789  20.3741  21.8304  23.9511  25.5620  30.3478  30.7089  32.6634
    36.6943  37.7782  40.2131  44.6954  46.7745  46.8988  49.0321  51.2842

     occupation numbers 
     1.0000   1.0000   1.0000   1.0000   1.0000   1.0000   1.0000   1.0000
     0.0566   0.0011   0.0000   0.0000   0.0000   0.0000   0.0000   0.0000
     0.0000   0.0000   0.0000   0.0000   0.0000   0.0000   0.0000   0.0000

          k = 0.3333-0.5774 0.0680 (  2543 PWs)   bands (ev):

   -33.6736 -12.6545 -12.5351 -12.2054   7.8408  12.9576  14.3460  14.4263
    19.3653  20.3335  21.7807  24.0604  25.4428  30.0379  31.1797  32.6661
    36.1449  38.3146  40.1682  44.5139  46.5998  47.0476  49.0881  50.0291

     occupation numbers 
     1.0000   1.0000   1.0000   1.0000   1.0000   1.0000   1.0000   1.0000
     0.0418   0.0012   0.0000   0.0000   0.0000   0.0000   0.0000   0.0000
     0.0000   0.0000   0.0000   0.0000   0.0000   0.0000   0.0000   0.0000

          k = 0.3333-0.5774 0.1361 (  2544 PWs)   bands (ev):

   -33.6736 -12.6881 -12.4803 -12.2267   7.8437  12.9897  14.2852  14.4122
    19.5956  20.1806  21.7069  24.3265  25.1464  29.7861  31.8015  32.6764
    35.3899  39.0678  40.0111  44.1482  46.3986  47.3681  48.7606  50.2173

     occupation numbers 
     1.0000   1.0000   1.0000   1.0000   1.0000   1.0000   1.0000   1.0000
     0.0184   0.0022   0.0000   0.0000   0.0000   0.0000   0.0000   0.0000
     0.0000   0.0000   0.0000   0.0000   0.0000   0.0000   0.0000   0.0000

          k = 0.3333-0.5774 0.2041 (  2542 PWs)   bands (ev):

   -33.6736 -12.7000 -12.4555 -12.2397   7.8452  13.0069  14.2522  14.4070
    19.8514  19.9557  21.6823  24.5624  24.8913  29.7046  32.1042  32.6904
    35.0310  39.5844  39.7350  43.9643  46.3193  47.7075  48.3221  50.4797

     occupation numbers 
     1.0000   1.0000   1.0000   1.0000   1.0000   1.0000   1.0000   1.0000
     0.0073   0.0050   0.0000   0.0000   0.0000   0.0000   0.0000   0.0000
     0.0000   0.0000   0.0000   0.0000   0.0000   0.0000   0.0000   0.0000

     the Fermi energy is    18.5133 ev

!    total energy              =    -125.20104765 Ry
     Harris-Foulkes estimate   =    -125.20104765 Ry
     estimated scf accuracy    <          6.9E-09 Ry

     The total energy is the sum of the following terms:

     one-electron contribution =      -9.13529968 Ry
     hartree contribution      =      14.88283819 Ry
     xc contribution           =     -17.08042266 Ry
     ewald contribution        =    -113.85416382 Ry
     smearing contrib. (-TS)   =      -0.01399967 Ry

     convergence has been achieved in   9 iterations

     Writing output data file pwscf.save
 
     init_run     :      2.72s CPU      2.85s WALL (       1 calls)
     electrons    :     65.96s CPU     68.60s WALL (       1 calls)

     Called by init_run:
     wfcinit      :      2.67s CPU      2.77s WALL (       1 calls)
     wfcinit:atom :      0.08s CPU      0.08s WALL (     580 calls)
     wfcinit:wfcr :      2.33s CPU      2.43s WALL (     580 calls)
     potinit      :      0.00s CPU      0.00s WALL (       1 calls)

     Called by electrons:
     c_bands      :     55.88s CPU     58.20s WALL (       9 calls)
     sum_band     :     10.05s CPU     10.26s WALL (       9 calls)
     v_of_rho     :      0.01s CPU      0.01s WALL (      10 calls)
     v_h          :      0.00s CPU      0.00s WALL (      10 calls)
     v_xc         :      0.01s CPU      0.01s WALL (      10 calls)
     mix_rho      :      0.00s CPU      0.00s WALL (       9 calls)

     Called by c_bands:
     init_us_2    :      1.48s CPU      1.46s WALL (   11020 calls)
     cegterg      :     53.52s CPU     54.65s WALL (    5220 calls)

     Called by sum_band:

     Called by *egterg:
     h_psi        :     39.90s CPU     40.85s WALL (   14336 calls)
     g_psi        :      0.35s CPU      0.35s WALL (    8536 calls)
     cdiaghg      :     10.38s CPU     10.62s WALL (   13756 calls)
     cegterg:over :      1.85s CPU      1.87s WALL (    8536 calls)
     cegterg:upda :      0.76s CPU      0.83s WALL (    8536 calls)
     cegterg:last :      0.51s CPU      0.51s WALL (    5220 calls)

     Called by h_psi:
     h_psi:pot    :     39.72s CPU     40.66s WALL (   14336 calls)
     h_psi:calbec :      0.91s CPU      0.87s WALL (   14336 calls)
     vloc_psi     :     38.19s CPU     39.18s WALL (   14336 calls)
     add_vuspsi   :      0.59s CPU      0.58s WALL (   14336 calls)

     General routines
     calbec       :      0.89s CPU      0.86s WALL (   14336 calls)
     fft          :      0.01s CPU      0.03s WALL (      39 calls)
     fftw         :     42.23s CPU     43.26s WALL (  705720 calls)
 
     Parallel routines
     fft_scatter  :     13.10s CPU     13.57s WALL (  705759 calls)
 
     PWSCF        :  1m11.97s CPU     2m26.59s WALL

 
   This run was terminated on:   7:12: 5   2Jun2017            

=------------------------------------------------------------------------------=
   JOB DONE.
=------------------------------------------------------------------------------=
